800
Atoms. Timestep: 0
1 3.09562e-16 5.36177e-16 0
1 1.261 0.728039 0
1 2.522 9.57751e-16 0
1 3.783 0.728039 0
1 5.044 9.98681e-16 0
1 6.305 0.728039 0
1 7.566 1.17059e-15 0
1 8.827 0.728039 0
1 10.088 1.08873e-15 0
1 11.349 0.728039 0
1 12.61 1.66174e-15 0
1 13.871 0.728039 0
1 15.132 9.0045e-16 0
1 16.393 0.728039 0
1 17.654 1.36705e-15 0
1 18.915 0.728039 0
1 20.176 7.77661e-16 0
1 21.437 0.728039 0
1 22.698 1.55532e-15 0
1 23.959 0.728039 0
1 25.22 1.03142e-15 0
1 26.481 0.728039 0
1 27.742 9.65937e-16 0
1 29.003 0.728039 0
1 30.264 9.0045e-16 0
1 31.525 0.728039 0
1 32.786 1.03142e-15 0
1 34.047 0.728039 0
1 35.308 7.28546e-16 0
1 36.569 0.728039 0
1 37.83 1.14603e-15 0
1 39.091 0.728039 0
1 40.352 7.12174e-16 0
1 41.613 0.728039 0
1 42.874 2.2102e-15 0
1 44.135 0.728039 0
1 45.396 3.43808e-16 0
1 46.657 0.728039 0
1 47.918 1.22789e-15 0
1 49.179 0.728039 0
1 1.261 2.18412 0
1 2.522 2.91215 0
1 3.783 2.18412 0
1 5.044 2.91215 0
1 6.305 2.18412 0
1 7.566 2.91215 0
1 8.827 2.18412 0
1 10.088 2.91215 0
1 11.349 2.18412 0
1 12.61 2.91215 0
1 13.871 2.18412 0
1 15.132 2.91215 0
1 16.393 2.18412 0
1 17.654 2.91215 0
1 18.915 2.18412 0
1 20.176 2.91215 0
1 21.437 2.18412 0
1 22.698 2.91215 0
1 23.959 2.18412 0
1 25.22 2.91215 0
1 26.481 2.18412 0
1 27.742 2.91215 0
1 29.003 2.18412 0
1 30.264 2.91215 0
1 31.525 2.18412 0
1 32.786 2.91215 0
1 34.047 2.18412 0
1 35.308 2.91215 0
1 36.569 2.18412 0
1 37.83 2.91215 0
1 39.091 2.18412 0
1 40.352 2.91215 0
1 41.613 2.18412 0
1 42.874 2.91215 0
1 44.135 2.18412 0
1 45.396 2.91215 0
1 46.657 2.18412 0
1 47.918 2.91215 0
1 49.179 2.18412 0
1 50.44 2.91215 0
1 2.522 4.36823 0
1 3.783 5.09627 0
1 5.044 4.36823 0
1 6.305 5.09627 0
1 7.566 4.36823 0
1 8.827 5.09627 0
1 10.088 4.36823 0
1 11.349 5.09627 0
1 12.61 4.36823 0
1 13.871 5.09627 0
1 15.132 4.36823 0
1 16.393 5.09627 0
1 17.654 4.36823 0
1 18.915 5.09627 0
1 20.176 4.36823 0
1 21.437 5.09627 0
1 22.698 4.36823 0
1 23.959 5.09627 0
1 25.22 4.36823 0
1 26.481 5.09627 0
1 27.742 4.36823 0
1 29.003 5.09627 0
1 30.264 4.36823 0
1 31.525 5.09627 0
1 32.786 4.36823 0
1 34.047 5.09627 0
1 35.308 4.36823 0
1 36.569 5.09627 0
1 37.83 4.36823 0
1 39.091 5.09627 0
1 40.352 4.36823 0
1 41.613 5.09627 0
1 42.874 4.36823 0
1 44.135 5.09627 0
1 45.396 4.36823 0
1 46.657 5.09627 0
1 47.918 4.36823 0
1 49.179 5.09627 0
1 50.44 4.36823 0
1 51.701 5.09627 0
1 3.783 6.55235 0
1 5.044 7.28039 0
1 6.305 6.55235 0
1 7.566 7.28039 0
1 8.827 6.55235 0
1 10.088 7.28039 0
1 11.349 6.55235 0
1 12.61 7.28039 0
1 13.871 6.55235 0
1 15.132 7.28039 0
1 16.393 6.55235 0
1 17.654 7.28039 0
1 18.915 6.55235 0
1 20.176 7.28039 0
1 21.437 6.55235 0
1 22.698 7.28039 0
1 23.959 6.55235 0
1 25.22 7.28039 0
1 26.481 6.55235 0
1 27.742 7.28039 0
1 29.003 6.55235 0
1 30.264 7.28039 0
1 31.525 6.55235 0
1 32.786 7.28039 0
1 34.047 6.55235 0
1 35.308 7.28039 0
1 36.569 6.55235 0
1 37.83 7.28039 0
1 39.091 6.55235 0
1 40.352 7.28039 0
1 41.613 6.55235 0
1 42.874 7.28039 0
1 44.135 6.55235 0
1 45.396 7.28039 0
1 46.657 6.55235 0
1 47.918 7.28039 0
1 49.179 6.55235 0
1 50.44 7.28039 0
1 51.701 6.55235 0
1 52.962 7.28039 0
1 5.044 8.73646 0
1 6.305 9.4645 0
1 7.566 8.73646 0
1 8.827 9.4645 0
1 10.088 8.73646 0
1 11.349 9.4645 0
1 12.61 8.73646 0
1 13.871 9.4645 0
1 15.132 8.73646 0
1 16.393 9.4645 0
1 17.654 8.73646 0
1 18.915 9.4645 0
1 20.176 8.73646 0
1 21.437 9.4645 0
1 22.698 8.73646 0
1 23.959 9.4645 0
1 25.22 8.73646 0
1 26.481 9.4645 0
1 27.742 8.73646 0
1 29.003 9.4645 0
1 30.264 8.73646 0
1 31.525 9.4645 0
1 32.786 8.73646 0
1 34.047 9.4645 0
1 35.308 8.73646 0
1 36.569 9.4645 0
1 37.83 8.73646 0
1 39.091 9.4645 0
1 40.352 8.73646 0
1 41.613 9.4645 0
1 42.874 8.73646 0
1 44.135 9.4645 0
1 45.396 8.73646 0
1 46.657 9.4645 0
1 47.918 8.73646 0
1 49.179 9.4645 0
1 50.44 8.73646 0
1 51.701 9.4645 0
1 52.962 8.73646 0
1 54.223 9.4645 0
1 6.305 10.9206 0
1 7.566 11.6486 0
1 8.827 10.9206 0
1 10.088 11.6486 0
1 11.349 10.9206 0
1 12.61 11.6486 0
1 13.871 10.9206 0
1 15.132 11.6486 0
1 16.393 10.9206 0
1 17.654 11.6486 0
1 18.915 10.9206 0
1 20.176 11.6486 0
1 21.437 10.9206 0
1 22.698 11.6486 0
1 23.959 10.9206 0
1 25.22 11.6486 0
1 26.481 10.9206 0
1 27.742 11.6486 0
1 29.003 10.9206 0
1 30.264 11.6486 0
1 31.525 10.9206 0
1 32.786 11.6486 0
1 34.047 10.9206 0
1 35.308 11.6486 0
1 36.569 10.9206 0
1 37.83 11.6486 0
1 39.091 10.9206 0
1 40.352 11.6486 0
1 41.613 10.9206 0
1 42.874 11.6486 0
1 44.135 10.9206 0
1 45.396 11.6486 0
1 46.657 10.9206 0
1 47.918 11.6486 0
1 49.179 10.9206 0
1 50.44 11.6486 0
1 51.701 10.9206 0
1 52.962 11.6486 0
1 54.223 10.9206 0
1 55.484 11.6486 0
1 7.566 13.1047 0
1 8.827 13.8327 0
1 10.088 13.1047 0
1 11.349 13.8327 0
1 12.61 13.1047 0
1 13.871 13.8327 0
1 15.132 13.1047 0
1 16.393 13.8327 0
1 17.654 13.1047 0
1 18.915 13.8327 0
1 20.176 13.1047 0
1 21.437 13.8327 0
1 22.698 13.1047 0
1 23.959 13.8327 0
1 25.22 13.1047 0
1 26.481 13.8327 0
1 27.742 13.1047 0
1 29.003 13.8327 0
1 30.264 13.1047 0
1 31.525 13.8327 0
1 32.786 13.1047 0
1 34.047 13.8327 0
1 35.308 13.1047 0
1 36.569 13.8327 0
1 37.83 13.1047 0
1 39.091 13.8327 0
1 40.352 13.1047 0
1 41.613 13.8327 0
1 42.874 13.1047 0
1 44.135 13.8327 0
1 45.396 13.1047 0
1 46.657 13.8327 0
1 47.918 13.1047 0
1 49.179 13.8327 0
1 50.44 13.1047 0
1 51.701 13.8327 0
1 52.962 13.1047 0
1 54.223 13.8327 0
1 55.484 13.1047 0
1 56.745 13.8327 0
1 8.827 15.2888 0
1 10.088 16.0169 0
1 11.349 15.2888 0
1 12.61 16.0169 0
1 13.871 15.2888 0
1 15.132 16.0169 0
1 16.393 15.2888 0
1 17.654 16.0169 0
1 18.915 15.2888 0
1 20.176 16.0169 0
1 21.437 15.2888 0
1 22.698 16.0169 0
1 23.959 15.2888 0
1 25.22 16.0169 0
1 26.481 15.2888 0
1 27.742 16.0169 0
1 29.003 15.2888 0
1 30.264 16.0169 0
1 31.525 15.2888 0
1 32.786 16.0169 0
1 34.047 15.2888 0
1 35.308 16.0169 0
1 36.569 15.2888 0
1 37.83 16.0169 0
1 39.091 15.2888 0
1 40.352 16.0169 0
1 41.613 15.2888 0
1 42.874 16.0169 0
1 44.135 15.2888 0
1 45.396 16.0169 0
1 46.657 15.2888 0
1 47.918 16.0169 0
1 49.179 15.2888 0
1 50.44 16.0169 0
1 51.701 15.2888 0
1 52.962 16.0169 0
1 54.223 15.2888 0
1 55.484 16.0169 0
1 56.745 15.2888 0
1 58.006 16.0169 0
1 10.088 17.4729 0
1 11.349 18.201 0
1 12.61 17.4729 0
1 13.871 18.201 0
1 15.132 17.4729 0
1 16.393 18.201 0
1 17.654 17.4729 0
1 18.915 18.201 0
1 20.176 17.4729 0
1 21.437 18.201 0
1 22.698 17.4729 0
1 23.959 18.201 0
1 25.22 17.4729 0
1 26.481 18.201 0
1 27.742 17.4729 0
1 29.003 18.201 0
1 30.264 17.4729 0
1 31.525 18.201 0
1 32.786 17.4729 0
1 34.047 18.201 0
1 35.308 17.4729 0
1 36.569 18.201 0
1 37.83 17.4729 0
1 39.091 18.201 0
1 40.352 17.4729 0
1 41.613 18.201 0
1 42.874 17.4729 0
1 44.135 18.201 0
1 45.396 17.4729 0
1 46.657 18.201 0
1 47.918 17.4729 0
1 49.179 18.201 0
1 50.44 17.4729 0
1 51.701 18.201 0
1 52.962 17.4729 0
1 54.223 18.201 0
1 55.484 17.4729 0
1 56.745 18.201 0
1 58.006 17.4729 0
1 59.267 18.201 0
1 11.349 19.657 0
1 12.61 20.3851 0
1 13.871 19.657 0
1 15.132 20.3851 0
1 16.393 19.657 0
1 17.654 20.3851 0
1 18.915 19.657 0
1 20.176 20.3851 0
1 21.437 19.657 0
1 22.698 20.3851 0
1 23.959 19.657 0
1 25.22 20.3851 0
1 26.481 19.657 0
1 27.742 20.3851 0
1 29.003 19.657 0
1 30.264 20.3851 0
1 31.525 19.657 0
1 32.786 20.3851 0
1 34.047 19.657 0
1 35.308 20.3851 0
1 36.569 19.657 0
1 37.83 20.3851 0
1 39.091 19.657 0
1 40.352 20.3851 0
1 41.613 19.657 0
1 42.874 20.3851 0
1 44.135 19.657 0
1 45.396 20.3851 0
1 46.657 19.657 0
1 47.918 20.3851 0
1 49.179 19.657 0
1 50.44 20.3851 0
1 51.701 19.657 0
1 52.962 20.3851 0
1 54.223 19.657 0
1 55.484 20.3851 0
1 56.745 19.657 0
1 58.006 20.3851 0
1 59.267 19.657 0
1 60.528 20.3851 0
1 12.61 21.8412 0
1 13.871 22.5692 0
1 15.132 21.8412 0
1 16.393 22.5692 0
1 17.654 21.8412 0
1 18.915 22.5692 0
1 20.176 21.8412 0
1 21.437 22.5692 0
1 22.698 21.8412 0
1 23.959 22.5692 0
1 25.22 21.8412 0
1 26.481 22.5692 0
1 27.742 21.8412 0
1 29.003 22.5692 0
1 30.264 21.8412 0
1 31.525 22.5692 0
1 32.786 21.8412 0
1 34.047 22.5692 0
1 35.308 21.8412 0
1 36.569 22.5692 0
1 37.83 21.8412 0
1 39.091 22.5692 0
1 40.352 21.8412 0
1 41.613 22.5692 0
1 42.874 21.8412 0
1 44.135 22.5692 0
1 45.396 21.8412 0
1 46.657 22.5692 0
1 47.918 21.8412 0
1 49.179 22.5692 0
1 50.44 21.8412 0
1 51.701 22.5692 0
1 52.962 21.8412 0
1 54.223 22.5692 0
1 55.484 21.8412 0
1 56.745 22.5692 0
1 58.006 21.8412 0
1 59.267 22.5692 0
1 60.528 21.8412 0
1 61.789 22.5692 0
1 13.871 24.0253 0
1 15.132 24.7533 0
1 16.393 24.0253 0
1 17.654 24.7533 0
1 18.915 24.0253 0
1 20.176 24.7533 0
1 21.437 24.0253 0
1 22.698 24.7533 0
1 23.959 24.0253 0
1 25.22 24.7533 0
1 26.481 24.0253 0
1 27.742 24.7533 0
1 29.003 24.0253 0
1 30.264 24.7533 0
1 31.525 24.0253 0
1 32.786 24.7533 0
1 34.047 24.0253 0
1 35.308 24.7533 0
1 36.569 24.0253 0
1 37.83 24.7533 0
1 39.091 24.0253 0
1 40.352 24.7533 0
1 41.613 24.0253 0
1 42.874 24.7533 0
1 44.135 24.0253 0
1 45.396 24.7533 0
1 46.657 24.0253 0
1 47.918 24.7533 0
1 49.179 24.0253 0
1 50.44 24.7533 0
1 51.701 24.0253 0
1 52.962 24.7533 0
1 54.223 24.0253 0
1 55.484 24.7533 0
1 56.745 24.0253 0
1 58.006 24.7533 0
1 59.267 24.0253 0
1 60.528 24.7533 0
1 61.789 24.0253 0
1 63.05 24.7533 0
1 15.132 26.2094 0
1 16.393 26.9374 0
1 17.654 26.2094 0
1 18.915 26.9374 0
1 20.176 26.2094 0
1 21.437 26.9374 0
1 22.698 26.2094 0
1 23.959 26.9374 0
1 25.22 26.2094 0
1 26.481 26.9374 0
1 27.742 26.2094 0
1 29.003 26.9374 0
1 30.264 26.2094 0
1 31.525 26.9374 0
1 32.786 26.2094 0
1 34.047 26.9374 0
1 35.308 26.2094 0
1 36.569 26.9374 0
1 37.83 26.2094 0
1 39.091 26.9374 0
1 40.352 26.2094 0
1 41.613 26.9374 0
1 42.874 26.2094 0
1 44.135 26.9374 0
1 45.396 26.2094 0
1 46.657 26.9374 0
1 47.918 26.2094 0
1 49.179 26.9374 0
1 50.44 26.2094 0
1 51.701 26.9374 0
1 52.962 26.2094 0
1 54.223 26.9374 0
1 55.484 26.2094 0
1 56.745 26.9374 0
1 58.006 26.2094 0
1 59.267 26.9374 0
1 60.528 26.2094 0
1 61.789 26.9374 0
1 63.05 26.2094 0
1 64.311 26.9374 0
1 16.393 28.3935 0
1 17.654 29.1215 0
1 18.915 28.3935 0
1 20.176 29.1215 0
1 21.437 28.3935 0
1 22.698 29.1215 0
1 23.959 28.3935 0
1 25.22 29.1215 0
1 26.481 28.3935 0
1 27.742 29.1215 0
1 29.003 28.3935 0
1 30.264 29.1215 0
1 31.525 28.3935 0
1 32.786 29.1215 0
1 34.047 28.3935 0
1 35.308 29.1215 0
1 36.569 28.3935 0
1 37.83 29.1215 0
1 39.091 28.3935 0
1 40.352 29.1215 0
1 41.613 28.3935 0
1 42.874 29.1215 0
1 44.135 28.3935 0
1 45.396 29.1215 0
1 46.657 28.3935 0
1 47.918 29.1215 0
1 49.179 28.3935 0
1 50.44 29.1215 0
1 51.701 28.3935 0
1 52.962 29.1215 0
1 54.223 28.3935 0
1 55.484 29.1215 0
1 56.745 28.3935 0
1 58.006 29.1215 0
1 59.267 28.3935 0
1 60.528 29.1215 0
1 61.789 28.3935 0
1 63.05 29.1215 0
1 64.311 28.3935 0
1 65.572 29.1215 0
1 17.654 30.5776 0
1 18.915 31.3057 0
1 20.176 30.5776 0
1 21.437 31.3057 0
1 22.698 30.5776 0
1 23.959 31.3057 0
1 25.22 30.5776 0
1 26.481 31.3057 0
1 27.742 30.5776 0
1 29.003 31.3057 0
1 30.264 30.5776 0
1 31.525 31.3057 0
1 32.786 30.5776 0
1 34.047 31.3057 0
1 35.308 30.5776 0
1 36.569 31.3057 0
1 37.83 30.5776 0
1 39.091 31.3057 0
1 40.352 30.5776 0
1 41.613 31.3057 0
1 42.874 30.5776 0
1 44.135 31.3057 0
1 45.396 30.5776 0
1 46.657 31.3057 0
1 47.918 30.5776 0
1 49.179 31.3057 0
1 50.44 30.5776 0
1 51.701 31.3057 0
1 52.962 30.5776 0
1 54.223 31.3057 0
1 55.484 30.5776 0
1 56.745 31.3057 0
1 58.006 30.5776 0
1 59.267 31.3057 0
1 60.528 30.5776 0
1 61.789 31.3057 0
1 63.05 30.5776 0
1 64.311 31.3057 0
1 65.572 30.5776 0
1 66.833 31.3057 0
1 18.915 32.7617 0
1 20.176 33.4898 0
1 21.437 32.7617 0
1 22.698 33.4898 0
1 23.959 32.7617 0
1 25.22 33.4898 0
1 26.481 32.7617 0
1 27.742 33.4898 0
1 29.003 32.7617 0
1 30.264 33.4898 0
1 31.525 32.7617 0
1 32.786 33.4898 0
1 34.047 32.7617 0
1 35.308 33.4898 0
1 36.569 32.7617 0
1 37.83 33.4898 0
1 39.091 32.7617 0
1 40.352 33.4898 0
1 41.613 32.7617 0
1 42.874 33.4898 0
1 44.135 32.7617 0
1 45.396 33.4898 0
1 46.657 32.7617 0
1 47.918 33.4898 0
1 49.179 32.7617 0
1 50.44 33.4898 0
1 51.701 32.7617 0
1 52.962 33.4898 0
1 54.223 32.7617 0
1 55.484 33.4898 0
1 56.745 32.7617 0
1 58.006 33.4898 0
1 59.267 32.7617 0
1 60.528 33.4898 0
1 61.789 32.7617 0
1 63.05 33.4898 0
1 64.311 32.7617 0
1 65.572 33.4898 0
1 66.833 32.7617 0
1 68.094 33.4898 0
1 20.176 34.9459 0
1 21.437 35.6739 0
1 22.698 34.9459 0
1 23.959 35.6739 0
1 25.22 34.9459 0
1 26.481 35.6739 0
1 27.742 34.9459 0
1 29.003 35.6739 0
1 30.264 34.9459 0
1 31.525 35.6739 0
1 32.786 34.9459 0
1 34.047 35.6739 0
1 35.308 34.9459 0
1 36.569 35.6739 0
1 37.83 34.9459 0
1 39.091 35.6739 0
1 40.352 34.9459 0
1 41.613 35.6739 0
1 42.874 34.9459 0
1 44.135 35.6739 0
1 45.396 34.9459 0
1 46.657 35.6739 0
1 47.918 34.9459 0
1 49.179 35.6739 0
1 50.44 34.9459 0
1 51.701 35.6739 0
1 52.962 34.9459 0
1 54.223 35.6739 0
1 55.484 34.9459 0
1 56.745 35.6739 0
1 58.006 34.9459 0
1 59.267 35.6739 0
1 60.528 34.9459 0
1 61.789 35.6739 0
1 63.05 34.9459 0
1 64.311 35.6739 0
1 65.572 34.9459 0
1 66.833 35.6739 0
1 68.094 34.9459 0
1 69.355 35.6739 0
1 21.437 37.13 0
1 22.698 37.858 0
1 23.959 37.13 0
1 25.22 37.858 0
1 26.481 37.13 0
1 27.742 37.858 0
1 29.003 37.13 0
1 30.264 37.858 0
1 31.525 37.13 0
1 32.786 37.858 0
1 34.047 37.13 0
1 35.308 37.858 0
1 36.569 37.13 0
1 37.83 37.858 0
1 39.091 37.13 0
1 40.352 37.858 0
1 41.613 37.13 0
1 42.874 37.858 0
1 44.135 37.13 0
1 45.396 37.858 0
1 46.657 37.13 0
1 47.918 37.858 0
1 49.179 37.13 0
1 50.44 37.858 0
1 51.701 37.13 0
1 52.962 37.858 0
1 54.223 37.13 0
1 55.484 37.858 0
1 56.745 37.13 0
1 58.006 37.858 0
1 59.267 37.13 0
1 60.528 37.858 0
1 61.789 37.13 0
1 63.05 37.858 0
1 64.311 37.13 0
1 65.572 37.858 0
1 66.833 37.13 0
1 68.094 37.858 0
1 69.355 37.13 0
1 70.616 37.858 0
1 22.698 39.3141 0
1 23.959 40.0421 0
1 25.22 39.3141 0
1 26.481 40.0421 0
1 27.742 39.3141 0
1 29.003 40.0421 0
1 30.264 39.3141 0
1 31.525 40.0421 0
1 32.786 39.3141 0
1 34.047 40.0421 0
1 35.308 39.3141 0
1 36.569 40.0421 0
1 37.83 39.3141 0
1 39.091 40.0421 0
1 40.352 39.3141 0
1 41.613 40.0421 0
1 42.874 39.3141 0
1 44.135 40.0421 0
1 45.396 39.3141 0
1 46.657 40.0421 0
1 47.918 39.3141 0
1 49.179 40.0421 0
1 50.44 39.3141 0
1 51.701 40.0421 0
1 52.962 39.3141 0
1 54.223 40.0421 0
1 55.484 39.3141 0
1 56.745 40.0421 0
1 58.006 39.3141 0
1 59.267 40.0421 0
1 60.528 39.3141 0
1 61.789 40.0421 0
1 63.05 39.3141 0
1 64.311 40.0421 0
1 65.572 39.3141 0
1 66.833 40.0421 0
1 68.094 39.3141 0
1 69.355 40.0421 0
1 70.616 39.3141 0
1 71.877 40.0421 0
1 23.959 41.4982 0
1 25.22 42.2262 0
1 26.481 41.4982 0
1 27.742 42.2262 0
1 29.003 41.4982 0
1 30.264 42.2262 0
1 31.525 41.4982 0
1 32.786 42.2262 0
1 34.047 41.4982 0
1 35.308 42.2262 0
1 36.569 41.4982 0
1 37.83 42.2262 0
1 39.091 41.4982 0
1 40.352 42.2262 0
1 41.613 41.4982 0
1 42.874 42.2262 0
1 44.135 41.4982 0
1 45.396 42.2262 0
1 46.657 41.4982 0
1 47.918 42.2262 0
1 49.179 41.4982 0
1 50.44 42.2262 0
1 51.701 41.4982 0
1 52.962 42.2262 0
1 54.223 41.4982 0
1 55.484 42.2262 0
1 56.745 41.4982 0
1 58.006 42.2262 0
1 59.267 41.4982 0
1 60.528 42.2262 0
1 61.789 41.4982 0
1 63.05 42.2262 0
1 64.311 41.4982 0
1 65.572 42.2262 0
1 66.833 41.4982 0
1 68.094 42.2262 0
1 69.355 41.4982 0
1 70.616 42.2262 0
1 71.877 41.4982 0
1 73.138 42.2262 0
800
Atoms. Timestep: 50000
1 -0.116644 -0.105542 0.0202687
1 1.15852 0.63527 0.0489608
1 2.44863 -0.126521 -0.0254917
1 3.69242 0.598226 -0.0197867
1 4.93645 -0.128835 -0.0855072
1 6.20448 0.615451 0.0407854
1 7.48919 -0.108034 -0.0222992
1 8.74222 0.619262 -0.0606601
1 9.99694 -0.0683052 -0.0658694
1 11.2331 0.65237 -0.0372251
1 12.5145 -0.0742307 0.06656
1 13.8271 0.620978 -0.0240718
1 15.0555 -0.102839 -0.0210978
1 16.3593 0.653565 -0.0179056
1 17.6158 -0.0697012 0.0781008
1 18.8901 0.641712 -0.0227419
1 20.1825 -0.129752 -0.110074
1 21.4685 0.618893 -0.0146132
1 22.6746 -0.135217 -0.0139183
1 23.9717 0.609803 -0.0369198
1 25.2182 -0.116673 -0.089025
1 26.4909 0.596338 0.0226188
1 27.805 -0.0889571 0.0328008
1 29.0238 0.61535 -0.00941725
1 30.2685 -0.123373 0.00192224
1 31.5664 0.630232 -0.00914479
1 32.8428 -0.111692 -0.0549376
1 34.0971 0.640489 -0.0328127
1 35.3569 -0.0776649 -0.00604774
1 36.6244 0.63454 0.020803
1 37.8833 -0.078376 0.00903568
1 39.1336 0.600633 0.000374677
1 40.4155 -0.0899449 -0.0477521
1 41.6939 0.598282 -0.0566566
1 42.9501 -0.123542 0.00186725
1 44.2416 0.629819 -0.0316589
1 45.5044 -0.0875456 -0.0376943
1 46.7474 0.628873 0.00962056
1 48.0526 -0.118951 -0.0475308
1 49.3371 0.60572 0.0153201
1 1.1592 2.09689 -0.00923956
1 2.41554 2.80681 0.0100118
1 3.69936 2.04066 -0.0863115
1 4.93038 2.81018 -0.0141024
1 6.22071 2.07767 -0.0215719
1 7.48875 2.82573 -0.0358907
1 8.73586 2.06616 0.00767098
1 10.0177 2.84432 -0.000848324
1 11.2343 2.09743 -0.0736105
1 12.5389 2.86022 -0.0260107
1 13.8386 2.11525 -0.0601892
1 15.0803 2.84082 -0.101152
1 16.3184 2.09292 0.0179985
1 17.6146 2.79333 0.0172603
1 18.8719 2.06346 0.0371151
1 20.1352 2.79622 -0.0257995
1 21.4365 2.10299 0.00085494
1 22.6711 2.84042 -0.0367268
1 23.9441 2.06714 0.00448705
1 25.1815 2.78844 0.000783228
1 26.4576 2.07288 -0.0764676
1 27.7018 2.80988 0.00882886
1 28.9971 2.10615 0.0166885
1 30.3103 2.8419 -0.0251835
1 31.5435 2.09871 -0.00851408
1 32.7878 2.81546 -0.0105534
1 34.0741 2.09894 -0.0288778
1 35.3109 2.8111 -0.0280462
1 36.5983 2.06782 -0.0169531
1 37.8698 2.79575 0.0352272
1 39.1447 2.06135 0.050761
1 40.4425 2.76506 -0.027275
1 41.6934 2.06007 -8.8577e-05
1 42.9639 2.78992 0.0161838
1 44.2065 2.07139 -0.00299873
1 45.521 2.85036 -0.0451253
1 46.7623 2.07773 0.021738
1 48.0373 2.8061 0.0199349
1 49.3053 2.02562 -0.00669817
1 50.6055 2.81589 0.0378833
1 2.44789 4.26622 0.0155816
1 3.69682 4.97005 -0.0657542
1 4.95628 4.2338 0.00401809
1 6.20886 4.98927 0.000495113
1 7.49987 4.26074 -0.027486
1 8.79058 5.02809 -0.00889585
1 10.0488 4.25405 0.0675608
1 11.3096 5.00246 0.0418153
1 12.5534 4.26069 -0.0220346
1 13.8145 5.00885 -0.0435158
1 15.076 4.309 -0.00490598
1 16.3312 5.08193 0.0260266
1 17.6253 4.28775 -0.00641878
1 18.8856 4.99747 -0.0203491
1 20.1516 4.30661 0.0547588
1 21.4199 4.99342 0.0122219
1 22.6882 4.28672 0.0181027
1 23.92 5.01112 0.0145834
1 25.1773 4.30153 -0.0282373
1 26.4428 5.03856 0.000450015
1 27.6997 4.26023 -0.001114
1 29.0153 5.03499 -0.0149651
1 30.2876 4.31978 -0.0260064
1 31.5452 5.00832 -0.0909311
1 32.7868 4.29487 0.016579
1 34.0983 5.015 0.0348471
1 35.3298 4.27103 0.0227023
1 36.6341 4.96975 -0.0432246
1 37.8666 4.27279 -0.00684232
1 39.1119 5.009 -0.0763457
1 40.4424 4.2658 -0.0464545
1 41.6922 4.99511 0.0357966
1 42.9788 4.27448 0.0144
1 44.2284 4.99866 -0.0186097
1 45.5073 4.29631 -0.0308392
1 46.7653 5.04915 -0.0333319
1 48.0262 4.3081 -0.120464
1 49.281 5.00372 -0.00229462
1 50.5597 4.27296 0.0334049
1 51.8619 5.02863 0.0730527
1 3.67322 6.38585 -0.00241274
1 4.91819 7.15029 0.0200605
1 6.23113 6.45057 -0.0269676
1 7.47525 7.17715 -0.0483293
1 8.78308 6.48753 -0.0215652
1 10.0281 7.20449 0.0549627
1 11.3034 6.46702 -0.00778656
1 12.523 7.18729 -0.0516757
1 13.7975 6.47322 -0.0357463
1 15.0892 7.24571 -0.0145031
1 16.3299 6.53682 -0.00431582
1 17.6289 7.23933 -0.0207922
1 18.8848 6.51508 -0.0781157
1 20.1392 7.20401 0.0433692
1 21.4135 6.46679 0.00412208
1 22.7022 7.22423 -0.0240011
1 23.9431 6.49022 -0.000802701
1 25.2039 7.23623 0.0208945
1 26.4954 6.50067 -0.0153065
1 27.7393 7.23417 -0.115643
1 29.0191 6.46386 -0.00351082
1 30.2899 7.22394 -0.0290514
1 31.5689 6.51865 0.00912955
1 32.8543 7.22512 0.0153065
1 34.1188 6.49549 -0.0206378
1 35.375 7.20898 -0.0621825
1 36.6561 6.4696 -0.0596114
1 37.9058 7.18998 -0.0158916
1 39.171 6.45713 -0.0377743
1 40.3982 7.18252 0.00131089
1 41.6561 6.49511 -0.133251
1 43.0142 7.2502 -0.0428575
1 44.2299 6.48267 0.0127393
1 45.4584 7.21628 0.024683
1 46.7616 6.46128 -0.0219215
1 48.0038 7.23516 -0.0328113
1 49.2713 6.45939 -0.0670457
1 50.5353 7.17946 0.098634
1 51.8493 6.47668 -0.00778759
1 53.0786 7.16658 -0.00692174
1 4.94674 8.66301 0.0602198
1 6.21728 9.37737 0.00945804
1 7.49995 8.63944 -0.0514543
1 8.78321 9.38187 -0.0208109
1 10.0265 8.67334 0.00843387
1 11.2642 9.40784 -0.040863
1 12.5438 8.64316 -0.0889796
1 13.7845 9.42639 -0.0236287
1 15.1026 8.71621 0.0112222
1 16.3399 9.41818 0.0229924
1 17.5934 8.69052 0.0274879
1 18.8673 9.41485 0.0645991
1 20.1452 8.65473 -0.0588431
1 21.4396 9.39912 0.0252063
1 22.7056 8.66595 -0.0272629
1 23.9763 9.38586 -0.00476023
1 25.2249 8.67735 0.0253484
1 26.4983 9.41508 0.0351812
1 27.7766 8.68175 -0.035391
1 29.0498 9.39515 0.0138472
1 30.2898 8.6958 -0.0431294
1 31.5899 9.43481 -0.0230213
1 32.8404 8.67618 0.0317954
1 34.0532 9.41752 -0.0434293
1 35.334 8.6983 -0.00494846
1 36.6027 9.40624 -0.062075
1 37.8768 8.67754 0.0302178
1 39.1711 9.39159 0.0482891
1 40.4128 8.70116 0.00874831
1 41.7248 9.384 -0.0658534
1 42.9655 8.68771 -0.00149221
1 44.2255 9.42321 -0.072057
1 45.4501 8.67637 -0.00630482
1 46.7214 9.39717 0.0466803
1 48.0224 8.68729 0.0485541
1 49.2597 9.43001 0.0857228
1 50.5255 8.68174 0.0473695
1 51.8243 9.39783 0.0222714
1 53.1087 8.65919 0.0162971
1 54.3513 9.44472 0.00995434
1 6.19678 10.8107 -0.0860763
1 7.50097 11.5263 -0.0373648
1 8.76129 10.8564 0.00409301
1 10.0386 11.6322 -0.0285009
1 11.2696 10.8651 -0.050526
1 12.5219 11.5671 0.0162266
1 13.7993 10.8644 0.0151331
1 15.1 11.5963 -0.0780795
1 16.3866 10.881 -0.118204
1 17.5978 11.6163 0.0180897
1 18.8764 10.8481 -0.0252088
1 20.1136 11.6029 0.0360993
1 21.4275 10.8759 0.067629
1 22.6667 11.6106 -0.0263076
1 23.9412 10.8314 -0.0898305
1 25.2204 11.5839 -0.0191282
1 26.4842 10.8414 -0.0286043
1 27.7668 11.5821 -0.0354041
1 29.0385 10.861 0.0126701
1 30.2992 11.6425 -0.0663693
1 31.5595 10.8966 -0.0228745
1 32.8102 11.6221 -0.0502113
1 34.0498 10.8516 -0.0243538
1 35.3511 11.5952 -0.0509483
1 36.6288 10.8611 -0.0778173
1 37.894 11.5962 -0.0349359
1 39.1547 10.8714 0.037431
1 40.3714 11.5908 0.0552751
1 41.7223 10.8498 -0.0153188
1 42.9863 11.5259 -0.0620858
1 44.2595 10.8641 -0.0735602
1 45.5313 11.6048 -0.0571304
1 46.8117 10.844 0.0384727
1 48.0514 11.6172 -0.0210812
1 49.3235 10.9002 0.00249103
1 50.5476 11.6142 0.0303995
1 51.8215 10.8909 0.03467
1 53.1139 11.5815 0.0201536
1 54.3627 10.8663 -0.0253391
1 55.6221 11.6287 -0.00325014
1 7.50424 13.0226 0.0111105
1 8.74127 13.7391 -0.0165583
1 10.0226 13.0654 -0.0909815
1 11.2559 13.7771 -0.0781383
1 12.518 13.0549 -0.00521194
1 13.8324 13.8003 -0.0107839
1 15.0999 13.0688 0.0295161
1 16.3439 13.7598 0.0190098
1 17.6001 13.017 0.00949647
1 18.8784 13.7671 -0.045637
1 20.1131 13.0553 0.0485821
1 21.4173 13.7875 0.0309011
1 22.6935 13.1082 0.0103605
1 23.9472 13.7912 0.0135844
1 25.2243 13.0658 0.0374788
1 26.4955 13.7936 -0.0248212
1 27.75 13.0285 -0.0192567
1 28.9993 13.7806 -0.0134117
1 30.2832 13.0667 -0.0827145
1 31.5051 13.8047 -0.0596095
1 32.8244 13.0752 -0.0744803
1 34.0623 13.7954 0.106909
1 35.32 13.0767 -0.105632
1 36.6093 13.8061 0.0218519
1 37.9324 13.0781 -0.0184486
1 39.1355 13.7757 -0.0171055
1 40.4026 13.0377 0.0259222
1 41.6718 13.7727 -0.0349003
1 42.9595 13.0482 -0.0635563
1 44.208 13.7717 0.0501612
1 45.5186 13.0566 0.0160968
1 46.7983 13.7592 -0.0429431
1 48.0421 13.0542 0.0402392
1 49.2969 13.8183 0.0270169
1 50.5555 13.0845 -0.00487592
1 51.8053 13.8314 -0.0268426
1 53.1075 13.0755 -0.0152049
1 54.38 13.8335 0.0530332
1 55.6669 13.0607 0.0232183
1 56.9646 13.7893 0.0656605
1 8.77385 15.2629 0.00932439
1 10.0002 15.9764 -0.0406611
1 11.2674 15.2484 -0.0348128
1 12.5376 15.9941 -0.0693986
1 13.8112 15.274 -0.0199784
1 15.0542 15.9914 -0.0253525
1 16.3548 15.2411 0.0206819
1 17.6181 15.9756 0.00697559
1 18.8582 15.2372 -0.0144321
1 20.1544 15.9643 -0.0492736
1 21.3986 15.2519 0.0514802
1 22.6749 16.0084 -0.0195348
1 23.9362 15.2378 -0.0688654
1 25.2228 15.9378 -0.0716729
1 26.4974 15.2333 -0.0730434
1 27.7439 15.9648 -0.0683548
1 28.9964 15.2217 -0.0154612
1 30.248 15.9261 -0.0146554
1 31.5347 15.2531 0.0137097
1 32.8007 15.9875 0.0514151
1 34.0245 15.2671 0.0188481
1 35.3448 15.9803 -0.060763
1 36.6056 15.2617 -0.0269254
1 37.8819 15.9942 -0.0537257
1 39.124 15.2453 -0.050396
1 40.4098 15.9928 0.0192738
1 41.6664 15.258 0.0386181
1 42.9465 15.9911 -0.0282314
1 44.2347 15.2706 0.029066
1 45.4726 16.0112 -0.0103064
1 46.7654 15.2581 -0.0238097
1 48.06 15.9883 0.0229179
1 49.3129 15.2542 0.0242628
1 50.5916 15.9719 -0.0257334
1 51.8117 15.2778 -0.02565
1 53.0924 16.0019 -0.00428766
1 54.3757 15.2662 0.00811648
1 55.6596 16.0062 -0.0584542
1 56.9178 15.254 -0.0669973
1 58.1947 16.0128 -0.0488235
1 9.99063 17.4401 -0.0731653
1 11.2614 18.2011 -0.0667318
1 12.5209 17.476 -0.0546529
1 13.8313 18.1959 -0.0513803
1 15.0639 17.3954 0.0138679
1 16.3812 18.1588 -0.00159232
1 17.6555 17.4344 -0.00493728
1 18.8937 18.16 -0.0724074
1 20.1348 17.4564 0.0340051
1 21.3939 18.1774 0.0144239
1 22.6736 17.4346 0.0225156
1 23.9247 18.2117 0.0191894
1 25.2057 17.4979 0.0874032
1 26.5151 18.2266 -0.00729311
1 27.7522 17.442 -0.0221038
1 29.0168 18.1442 0.0253264
1 30.2804 17.4101 -0.0467754
1 31.5442 18.1377 0.0183202
1 32.8129 17.4056 0.00619278
1 34.1131 18.1407 0.0420915
1 35.3359 17.4641 -0.0563487
1 36.5842 18.1471 -0.0964059
1 37.8767 17.4531 -0.000525346
1 39.1663 18.1814 -0.0458435
1 40.4371 17.45 0.0176238
1 41.7053 18.2041 0.0203295
1 42.9176 17.4103 -0.000532883
1 44.2116 18.1586 0.00635574
1 45.4701 17.4421 0.0284292
1 46.7765 18.17 -0.0798995
1 48.0256 17.4439 -0.00436193
1 49.3067 18.1511 0.00515935
1 50.5436 17.4675 -0.000926405
1 51.8413 18.2043 -0.0112537
1 53.1087 17.4509 -0.101574
1 54.3775 18.1723 -0.0468468
1 55.6985 17.4528 -0.0354537
1 56.9141 18.1875 -0.0284269
1 58.2049 17.4784 0.0130373
1 59.465 18.1768 -0.0195524
1 11.2898 19.6511 -0.0216089
1 12.5254 20.3617 0.0141204
1 13.8572 19.6253 0.0416992
1 15.1008 20.3828 -0.0434952
1 16.3768 19.6557 -0.0371059
1 17.6723 20.3592 -0.0283755
1 18.9186 19.598 -0.0181
1 20.2065 20.3685 0.017703
1 21.4309 19.6485 -0.0356576
1 22.6654 20.3707 -0.0161606
1 23.9302 19.6604 -0.00508227
1 25.2001 20.3905 -0.0377786
1 26.4773 19.7077 0.0469555
1 27.7388 20.4121 0.0271345
1 29.0142 19.6532 -0.00117764
1 30.2968 20.3777 0.00305411
1 31.5492 19.6479 0.0415466
1 32.8214 20.3991 -0.0163816
1 34.0624 19.6548 -0.0286411
1 35.3739 20.3821 0.0398389
1 36.6299 19.6429 0.0342486
1 37.8784 20.3639 0.00434189
1 39.1559 19.6174 -0.0173299
1 40.442 20.3988 0.0692209
1 41.7497 19.6784 0.0381443
1 43.0001 20.3778 -0.010744
1 44.2261 19.6428 0.0205458
1 45.468 20.4102 -0.0834798
1 46.8091 19.6591 -0.00737076
1 48.045 20.3443 0.0178903
1 49.2897 19.6407 0.00528259
1 50.5697 20.4038 0.017074
1 51.8455 19.6757 0.0163888
1 53.0758 20.431 0.0175784
1 54.3815 19.6452 -0.0710558
1 55.6419 20.3729 -0.0051332
1 56.9075 19.5872 -0.0347478
1 58.1972 20.3443 0.00196645
1 59.4224 19.6466 0.0297954
1 60.7208 20.3914 -0.009553
1 12.5073 21.8214 0.00384814
1 13.7611 22.5638 -0.00463127
1 15.1426 21.8627 -0.0151802
1 16.3741 22.5736 -0.00271692
1 17.6499 21.829 -0.0200319
1 18.8747 22.5541 0.0372163
1 20.1979 21.8306 -0.0366299
1 21.428 22.5597 -0.0403163
1 22.6871 21.8353 -0.0791055
1 23.9637 22.5686 0.0122134
1 25.2155 21.8716 -0.00937531
1 26.4803 22.5797 -0.0428111
1 27.7421 21.8698 -0.0603077
1 29.0259 22.6076 0.00447779
1 30.3021 21.8516 -0.0571413
1 31.5783 22.6136 -0.0253672
1 32.8485 21.8599 -0.0142488
1 34.1065 22.5712 0.0182283
1 35.3559 21.8085 0.0267122
1 36.6107 22.5987 -0.00378499
1 37.9116 21.8577 -0.0213151
1 39.1452 22.5454 -0.0498366
1 40.3891 21.8827 -0.0097929
1 41.6903 22.5796 0.0488601
1 42.9829 21.8433 -0.0314998
1 44.2123 22.5827 0.0156764
1 45.4844 21.8437 -0.0402976
1 46.7576 22.5876 0.0144162
1 48.0584 21.8455 -0.0462976
1 49.3308 22.5769 -0.0751206
1 50.5982 21.8866 -0.0652411
1 51.8526 22.6092 -0.024641
1 53.0628 21.8671 -0.0552705
1 54.3347 22.5684 0.0658779
1 55.657 21.8114 -0.0167909
1 56.9082 22.5354 -0.0226844
1 58.1484 21.8331 0.0476611
1 59.4218 22.5896 0.0219054
1 60.7077 21.8477 -0.0648337
1 61.9561 22.5699 -0.0172895
1 13.7937 23.9731 0.0209417
1 15.1258 24.7926 -0.00403837
1 16.3832 24.0913 0.00853281
1 17.611 24.8213 -0.0276573
1 18.8724 24.0669 0.00975772
1 20.1863 24.7657 -0.0569205
1 21.43 24.0038 -0.047454
1 22.6974 24.7388 -0.0576121
1 23.9424 23.9988 -0.0300435
1 25.1548 24.7626 -0.0259372
1 26.4558 23.9728 -0.0681854
1 27.7162 24.7547 0.0846268
1 29.0167 24.0388 -0.00556042
1 30.2946 24.7598 -0.030671
1 31.5669 24.044 0.0188326
1 32.8269 24.7921 -0.0546439
1 34.0862 24.0607 0.037178
1 35.3572 24.7842 -0.0103631
1 36.6304 24.0434 -0.0604913
1 37.9296 24.7328 -0.0186709
1 39.1515 23.992 -0.0117039
1 40.4301 24.7689 -0.051077
1 41.7054 24.0652 0.0400087
1 42.9655 24.7722 -0.00428513
1 44.2242 24.0365 0.0395767
1 45.4864 24.7721 0.00318002
1 46.7515 24.0174 -0.0478061
1 47.9765 24.79 0.0124586
1 49.3006 24.0273 -0.00646155
1 50.559 24.8042 -0.00925054
1 51.838 24.0576 -0.0423944
1 53.1048 24.777 -0.00488482
1 54.3197 24.0375 -0.0182882
1 55.6383 24.7759 -0.0245513