LAMMPS (8 Feb 2019)
OMP_NUM_THREADS environment is not set. Defaulting to 1 thread. (../comm.cpp:87)
  using 1 OpenMP thread(s) per MPI task
# 3D copper block simulation
boundary        p p p
units           metal
atom_style      atomic

# geometry
read_data	    data.pos
  triclinic box = (0 0 0) to (50.44 43.6823 4.11843) with tilt (25.22 0 0)
  1 by 1 by 1 MPI processor grid
  reading atoms ...
  800 atoms

mass		    *   12.0107

# EAM potential
pair_style      tersoff
pair_coeff      * * SiC.tersoff C
Reading potential file SiC.tersoff with DATE: 2011-04-26
neighbor        2. nsq
neigh_modify    every 1 delay 0 check yes

#Langevin random seed
variable        dt equal 2e-6
variable        r  equal 57085
variable        T  equal 300
variable        dT equal "v_dt * 100"

timestep        ${dt}
timestep        2e-06


min_style       cg
minimize        1e-6 1e-6 1000000 1000000
Neighbor list info ...
  update every 1 steps, delay 0 steps, check yes
  max neighbors/atom: 2000, page size: 100000
  master list distance cutoff = 4.1
  ghost atom cutoff = 4.1
  1 neighbor lists, perpetual/occasional/extra = 1 0 0
  (1) pair tersoff, perpetual
      attributes: full, newton on
      pair build: full/nsq
      stencil: none
      bin: none
Per MPI rank memory allocation (min/avg/max) = 3.959 | 3.959 | 3.959 Mbytes
Step Temp E_pair E_mol TotEng Press 
       0            0    -5914.079            0    -5914.079    17918.198 
       1            0    -5914.079            0    -5914.079    17918.198 
Loop time of 0.0069809 on 1 procs for 1 steps with 800 atoms

0.0% CPU use with 1 MPI tasks x 1 OpenMP threads

Minimization stats:
  Stopping criterion = energy tolerance
  Energy initial, next-to-last, final = 
        -5914.07896039     -5914.07896039     -5914.07896039
  Force two-norm initial, final = 4.02845e-11 1.53761e-11
  Force max component initial, final = 5.28955e-12 1.61959e-12
  Final line search alpha, max atom move = 1 1.61959e-12
  Iterations, force evaluations = 1 2

MPI task timing breakdown:
Section |  min time  |  avg time  |  max time  |%varavg| %total
---------------------------------------------------------------
Pair    | 0.0059879  | 0.0059879  | 0.0059879  |   0.0 | 85.78
Neigh   | 0          | 0          | 0          |   0.0 |  0.00
Comm    | 0          | 0          | 0          |   0.0 |  0.00
Output  | 0          | 0          | 0          |   0.0 |  0.00
Modify  | 0          | 0          | 0          |   0.0 |  0.00
Other   |            | 0.000993   |            |       | 14.22

Nlocal:    800 ave 800 max 800 min
Histogram: 1 0 0 0 0 0 0 0 0 0
Nghost:    1410 ave 1410 max 1410 min
Histogram: 1 0 0 0 0 0 0 0 0 0
Neighs:    0 ave 0 max 0 min
Histogram: 1 0 0 0 0 0 0 0 0 0
FullNghs:  14400 ave 14400 max 14400 min
Histogram: 1 0 0 0 0 0 0 0 0 0

Total # of neighbors = 14400
Ave neighs/atom = 18
Neighbor list builds = 0
Dangerous builds = 0

# initialize
velocity        all create $T 28459 rot yes dist gaussian mom yes
velocity        all create 300 28459 rot yes dist gaussian mom yes


reset_timestep  0


# fixes
fix             1 all langevin $T $T ${dT} 73504 zero yes
fix             1 all langevin 300 $T ${dT} 73504 zero yes
fix             1 all langevin 300 300 ${dT} 73504 zero yes
fix             1 all langevin 300 300 0.0002 73504 zero yes
# fix             1 all nve
# fix             2 all npt temp $T $T 0.01 iso 0 0 0.1
fix             3 all nve
fix             4 all phonon 10 50000 1000000 map.in Graphene nasr 50
fix             5 all npt temp $T $T $(100.0*dt) iso 0 0 0.1
fix             5 all npt temp 300 $T $(100.0*dt) iso 0 0 0.1
fix             5 all npt temp 300 300 $(100.0*dt) iso 0 0 0.1
fix             5 all npt temp 300 300 0.00019999999999999998248 iso 0 0 0.1

# output
#                    1    2    3  4  5     6   7
thermo_style    custom step temp pe ke press pxx pyy
thermo          100

restart         1000000 restart.one restart.two

dump            1 all xyz 50000 dump.graphene.xyz

# execution
run 	        6000000
WARNING: One or more atoms are time integrated more than once (../modify.cpp:283)
Per MPI rank memory allocation (min/avg/max) = 4.798 | 4.798 | 4.798 Mbytes
Step Temp PotEng KinEng Press Pxx Pyy 
       0          300    -5914.079    30.983657    21565.231    30615.963    30564.167 
     100    551.45237   -5913.7457     56.95337     24620.68    33278.286    33983.154 
     200    540.79946   -5913.1806     55.85315    24382.529    33272.875    33309.576 
     300    502.31785   -5912.5579    51.878813    23667.121    32060.427    33036.873 
     400    520.05572    -5912.048    53.710759     23457.91    31803.723    31990.154 
     500    536.57641   -5911.5657    55.416998     23073.89    31334.463      31707.3 
     600    547.63924   -5911.1166    56.559554    22475.568    30020.666    30404.834 
     700    503.85198   -5910.7111    52.037256    21053.949    28294.929    28574.709 
     800    541.92975   -5910.3338    55.969884    20475.333    27631.923    27434.506 
     900    535.48342   -5909.9215    55.304115    19250.319    25145.558    26085.249 
    1000    499.32663   -5909.5317    51.569883    17541.391    22481.338    24152.306 
    1100    494.10368   -5909.2278    51.030463    16083.141     19801.63    22587.423 
    1200    534.84694   -5908.7812     55.23838    15112.588    18640.418    20065.872 
    1300    506.51466    -5908.451    52.312254    13189.071    15883.599    17693.155 
    1400    508.06346   -5908.0328    52.472213     11569.25    14300.523     14864.14 
    1500    520.75062   -5907.6488    53.782529    9996.5666    10871.384    12876.672 
    1600    499.64642   -5907.1666     51.60291    7980.9358    8008.0612    9595.2145 
    1700    531.83626   -5906.6781     54.92744    6575.9041    6235.3294    7139.5803 
    1800    532.12383   -5906.2803    54.957141    4733.1337    3482.0009    4535.1957 
    1900    501.41982   -5905.8347    51.786066    2514.3532     309.2313     1057.446 
    2000    505.00842   -5905.5711    52.156692    663.08338   -2540.4188   -1736.9499 
    2100    517.43538   -5905.3374    53.440134   -1095.8496   -5369.4499   -3926.6764 
    2200     511.4864    -5904.955    52.825731   -3025.8277   -7880.0936   -6803.4664 
    2300    531.85572   -5904.4411     54.92945   -4572.7293   -10861.834   -8898.5096 
    2400    492.50087   -5904.0018    50.864926   -6813.4849   -13127.101   -13136.082 
    2500    493.46551   -5903.3569    50.964553   -8485.3363   -15493.022   -15903.687 
    2600     487.2032   -5902.7309    50.317789   -10174.089   -17651.211   -18367.562 
    2700    484.80594   -5902.2353    50.070203   -11776.619   -19925.651    -20928.38 
    2800    542.77529   -5901.7786    56.057211   -12583.872   -21693.254   -22393.379 
    2900    507.31179   -5901.4004    52.394581   -14410.977   -24017.324   -25051.427 
    3000    517.41955   -5901.2016    53.438499   -15647.672   -25716.764    -26698.39 
    3100     518.6908   -5900.8412    53.569792   -16843.208   -27505.806   -29312.606 
    3200    504.18675   -5900.4241    52.071831   -18116.273   -29103.966   -31335.447 
    3300    496.63435   -5899.9971    51.291828   -19179.919   -30268.681   -32858.213 
    3400    506.33106   -5899.8297    52.293292   -19964.708   -31529.111   -34176.861 
    3500    512.83726   -5899.7613    52.965246   -20674.697    -32367.24   -35350.704 
    3600    529.73552   -5899.5483    54.710478   -21122.616   -32751.795   -36740.525 
    3700    483.84802    -5899.273     49.97127   -22152.965   -33941.355   -38121.982 
    3800    505.25859   -5898.9133    52.182529   -22224.578   -34346.033   -37950.861 
    3900    516.80012   -5898.6909    53.374525   -22317.983   -35015.316    -37969.05 
    4000    503.78854   -5898.4216    52.030704   -22555.327    -35472.79   -38241.626 
    4100    509.85104   -5898.1535    52.656832   -22416.592   -35736.849   -37678.432 
    4200    516.06063   -5897.9592    53.298151   -22155.254   -35323.163    -37478.13 
    4300    477.75246   -5897.6542    49.341727   -22270.005   -34986.367   -37107.549 
    4400    484.21754   -5897.5034    50.009433   -21748.349   -34200.823   -36536.278 
    4500    512.11867    -5897.299     52.89103   -20824.732   -33254.063   -35085.022 
    4600    485.91284   -5897.0346    50.184523   -20394.394   -33258.988   -33289.101 
    4700    486.36112   -5896.5937     50.23082   -19509.462   -31213.731   -32518.393 
    4800    487.39168   -5896.3936    50.337255   -18554.331   -29213.952   -31372.572 
    4900     501.7971   -5896.0215    51.825031   -17282.388   -27340.903   -30132.451 
    5000    497.88382   -5895.8034    51.420872   -16166.743   -25206.013   -28831.916 
    5100    504.18054   -5895.8686    52.071189   -14888.155   -23955.178   -26619.924 
    5200    493.88951   -5895.9832    51.008343   -13751.584   -21504.577    -24905.84 
    5300    509.24682   -5895.6794    52.594428   -12129.635   -19554.664   -23033.161 
    5400    515.34745   -5895.4438    53.224495   -10570.613    -16698.64   -20537.338 
    5500    491.64906   -5895.2778    50.776953   -9314.0353   -14880.376   -18884.745 
    5600    507.77329   -5895.1221    52.442244   -7550.4036   -12322.294   -16075.434 
    5700    512.56207    -5894.957    52.936824   -5857.0824   -9685.6369   -13454.442 
    5800    484.60026   -5894.8121     50.04896    -4544.936     -8279.56   -10868.264 
    5900    495.39107   -5894.9341    51.163422   -2824.2624   -4964.5106   -8880.0814 
    6000    471.58582   -5894.6597    48.704844   -1385.8873   -2897.2973   -6699.2198 
    6100    487.91691   -5894.5972      50.3915    457.86899    -171.5257   -3838.5958 
    6200     489.7619   -5894.4465    50.582049    2168.1493     2508.919   -1282.2119 
    6300    522.93717   -5894.3357    54.008352    4212.9508    4524.0534    1987.0103 
    6400    501.28524   -5894.2655    51.772167     5553.041    6283.6203    4767.7023 
    6500    486.70793   -5893.9448    50.266638    6988.5549    8032.9411    7830.9088 
    6600    500.00017     -5893.78    51.639445    8665.3012    10658.636     9903.355 
    6700    507.35999   -5893.6732    52.399559    10199.418    13132.544    11740.683 
    6800    483.58909   -5893.7408    49.944528    11236.944    14488.019    13825.493 
    6900    477.46908    -5893.735     49.31246    12417.517    16321.863    15703.978 
    7000    493.56087   -5893.7351    50.974402    13775.512    18130.792     17894.58 
    7100    507.04511    -5893.529    52.367038    15056.794    19627.647     20299.84 
    7200    475.69594   -5893.2086    49.129332    15714.655    21043.989    20809.796 
    7300    514.98165    -5892.925    53.186716    17115.434    22797.668    23128.823 
    7400    480.28579   -5892.8623    49.603367     17452.59    23767.817    23583.878 
    7500    488.23174   -5892.6963    50.424016      18234.8     24312.39    25410.727 
    7600    516.57457   -5892.5851    53.351231    19117.566    25493.495    26026.168 
    7700    511.83156   -5892.3755    52.861378    19492.096    25949.418    27038.877 
    7800    473.80375   -5892.1594    48.933909    19319.913     26711.09    26204.737 
    7900    507.51904   -5892.1065    52.415985    19872.808    26982.441    26801.076 
    8000    515.67738   -5892.0039     53.25857    20009.602    27367.866    27502.208 
    8100    501.45479   -5891.8677    51.789677    19753.258    26659.403    27168.077 
    8200    490.90012   -5891.6261    50.699603    19437.584    26192.107    26977.151 
    8300    492.63941    -5891.392    50.879235    19170.094      25548.1    26315.299 
    8400    484.15457   -5891.1909     50.00293    18645.964     25153.78    25563.269 
    8500    501.54215    -5890.888    51.798699    18352.304    24389.038    25117.927 
    8600    502.26004   -5890.8871    51.872843    17652.482     23586.59    23546.634 
    8700    510.38904   -5891.0156    52.712396    16904.466    22704.554    22731.413 
    8800    510.15571    -5891.008    52.688298    16010.948    21275.719    21358.808 
    8900    493.85069   -5890.8606    51.004335    14841.805    19943.211    19561.222 
    9000    509.96427    -5890.551    52.668527    14018.799    18194.635    18504.564 
    9100    494.43985   -5890.3196    51.065182    12738.664    16080.904    16948.179 
    9200    481.85148    -5890.123     49.76507    11407.194    14398.054    14605.888 
    9300    481.72266   -5889.8776    49.751765    10176.477     11845.76    13511.354 
    9400    485.59522   -5890.0167    50.151719    8838.9568    10110.914    11251.061 
    9500    491.02988   -5890.2045    50.713004    7465.4706    7989.5227    9336.4061 
    9600    504.78809   -5890.0935    52.133936    6249.9213    5744.0561     7504.367 
    9700    486.68482   -5889.9912    50.264252    4646.0753    4310.6409    4419.2892 
    9800    490.32868   -5889.8846    50.640586    3272.2774    1629.7921    3345.8498 
    9900    489.68857   -5889.8703    50.574475     1824.787   -595.46393    892.47048 
   10000    467.12596   -5889.7937    48.244235    159.03012   -2866.1157    -1935.037 
   10100    495.46565   -5889.6964    51.171126    -896.9466    -4284.679   -3575.3515 
   10200    488.29341   -5889.6916    50.430384   -2386.4915   -6535.9816   -5701.0873 
   10300     464.6234   -5889.5778    47.985774   -4019.0348   -8974.8958   -8006.6398 
   10400    481.56784   -5889.4432    49.735775      -5085.5   -10585.892    -10041.33 
   10500    489.14833   -5889.4802     50.51868   -6264.9068   -12258.314   -11695.112 
   10600    503.85503    -5889.106    52.037571   -7209.1843   -13152.607   -13551.481 
   10700    481.93604   -5888.9808    49.773803   -8560.3803    -15923.71   -15077.367 
   10800    475.64472   -5888.9293    49.124042    -9717.512   -16932.602   -16944.739 
   10900    484.09949   -5888.7023    49.997241   -10581.619   -18631.548   -18415.651 
   11000    488.81681   -5888.3626    50.484441   -11367.423   -19406.842   -19354.445 
   11100    492.76141   -5888.1247    50.891834   -12107.576    -21101.19   -20332.157 
   11200    489.56863   -5887.8708    50.562088   -12879.513   -23168.842   -20359.446 
   11300    499.83122   -5887.9149    51.621997   -13458.052   -24499.119   -21616.676 
   11400    481.12201   -5887.8403    49.689731   -14246.965   -25369.086   -22307.595 
   11500    488.93143   -5887.8765    50.496278   -14660.619   -25458.572   -23573.987 
   11600    467.84304   -5887.9965    48.318294   -15339.028   -26588.301   -24395.411 
   11700    501.06386    -5888.198    51.749302   -15296.287   -26664.704   -24422.639 
   11800    515.30484   -5888.0778    53.220094   -15321.813   -26434.581   -24461.803 
   11900    490.06295   -5887.8175    50.613141    -15706.85   -27354.913   -24446.007 
   12000    498.54839   -5887.6095    51.489508   -15593.944    -27422.66   -24470.131 
   12100    496.94301   -5887.3787    51.323705   -15504.503   -27943.038   -23932.873 
   12200    489.39724   -5887.3919    50.544387   -15429.416   -27132.055   -24270.453 
   12300    496.82765   -5887.3177    51.311791   -15060.915    -26234.07   -23820.503 
   12400     491.9688   -5887.3709    50.809975   -14794.071   -25119.972   -23999.404 
   12500    479.44394   -5887.2546    49.516422   -14506.618   -25367.578   -23261.001 
   12600     493.9213   -5887.3609    51.011627   -13848.529   -24211.382   -22016.667 
   12700    477.04591   -5887.2337    49.268756   -13433.302   -23539.665   -21256.293 
   12800    499.49676    -5887.271    51.587454   -12506.705   -22572.094   -19893.945 
   12900    490.37998   -5887.2991    50.645883     -11857.9   -21469.266   -18991.409 
   13000    499.39798   -5887.0142    51.577252    -10882.21   -20660.834   -17238.609 
   13100    484.25725   -5887.0143    50.013534   -10184.805   -20091.921   -15618.855 
   13200    487.12609   -5886.8824    50.309825   -9188.5894   -18244.889   -14265.339 
   13300    492.26942   -5886.9927    50.841023   -8181.2109   -16707.209   -13166.051 
   13400    483.00809   -5887.0357    49.884523   -7301.3096   -15204.004   -11515.356 
   13500    487.28568   -5887.0908    50.326307   -6202.2994    -13733.84   -9981.6396 
   13600    489.86177   -5887.3297    50.592363   -5154.9745   -12536.857   -7476.6371 
   13700    492.72693   -5887.4559    50.888274   -4041.8468   -10480.702    -6468.764 
   13800    471.59473    -5887.604    48.705765   -3220.4242   -8321.5856   -5658.6917 
   13900    484.69355   -5887.8495    50.058595   -2020.8112   -7088.1676   -3578.8989 
   14000    535.62104   -5887.6136    55.318328   -234.51176    -3813.288   -2176.6329 
   14100    485.72095   -5887.6687    50.164704    285.36192   -2692.3961   -1246.6595 
   14200    471.10493   -5887.6006    48.655178    1249.4958   -980.45112    123.54032 
   14300    482.09282   -5887.5933    49.789995    2490.5394    1609.5462    1241.9152 
   14400     483.2129   -5887.5778    49.905675    3602.4545    2828.4354     3031.974 
   14500    484.12036   -5887.4378    49.999396    4688.4886    4896.0974    4625.4996 
   14600    491.57877   -5887.2087    50.769693    5851.9963    6001.7314    6654.6305 
   14700    500.40527   -5887.0089    51.681284    6962.0406    7709.0419    8543.2878 
   14800    491.66811   -5886.9867    50.778919    7761.5427    9284.0183    9063.0195 
   14900    493.18997   -5886.7418    50.936096    8672.9623    10397.088    10782.643 
   15000    493.88774   -5886.7437     51.00816    9442.3754    11909.025    11815.433 
   15100     508.5672   -5886.5271    52.524239    10397.678    13229.736    12793.924 
   15200    481.44277   -5886.4416    49.722859    10738.907    14286.637    13157.945 
   15300    486.44361   -5886.3729    50.239339    11412.745    15358.284    14218.706 
   15400    502.22824    -5886.384    51.869558    12123.071    16472.629    14572.384 
   15500    487.57712   -5886.5007    50.356407    12355.457    17068.323    15146.514 
   15600     490.4549   -5886.3421    50.653621    12770.077    17206.521    15902.787 
   15700    494.95921   -5886.4309    51.118821    13034.075    17861.571    16375.345 
   15800      504.604     -5886.43    52.114923    13335.877    18069.627    16914.923 
   15900    504.44761   -5886.0848    52.098772    13529.471    17857.057    17588.484 
   16000    497.11852   -5886.0872    51.341832    13429.857    18203.146    17182.875 
   16100    495.50141   -5885.8654    51.174819    13383.993    17506.362    17433.143 
   16200    483.58217   -5885.9401    49.943814    13036.266    17269.658     16810.49 
   16300    504.97038   -5885.6474    52.152763    13118.386    17521.032    16594.298 
   16400    482.46839   -5885.3466    49.828784     12590.01    17390.974    15582.155 
   16500    520.06003   -5885.3979    53.711205    12645.439    16982.082    15689.081 
   16600    516.04243   -5885.2579    53.296272    12160.263    16244.428    14904.372 
   16700    491.43256   -5885.4075    50.754593     11306.71    15261.293    13820.406 
   16800    502.88673   -5885.4464    51.937566    10830.694     14616.71     12851.19 
   16900    499.84371   -5885.4859    51.623286    10126.086    13470.589    11844.914 
   17000    497.39404   -5885.6339    51.370287    9353.1946     12333.15    10855.087 
   17100    478.65789   -5885.6127    49.435239    8362.9439    10353.597    9908.7471 
   17200    477.98973   -5885.5492    49.366232    7560.5015    9744.3655    8493.4828 
   17300    487.70964   -5885.4207    50.370093    6862.5392    8607.6045    7676.3198 
   17400    506.71373   -5885.1444    52.332814    6253.9027    7869.5094    6064.9585 
   17500    492.39566   -5884.9031    50.854061    5209.1746    6125.6803     5042.838 
   17600    484.11646   -5884.9127    49.998994    4147.0232    5215.9308    2425.9967 
   17700    461.62114   -5884.4734    47.675704    3028.2695    3434.8748    1450.4567 
   17800    510.83286   -5884.2598    52.758233    2691.5018    2635.8808    325.58484 
   17900    493.07887   -5884.0197    50.924622    1572.1196    517.53854   -1104.6519 
   18000    483.76871   -5883.6711    49.963079    580.11011   -635.10404    -2324.041 
   18100    480.70052   -5883.5763      49.6462    -422.1456   -1951.0131   -3760.1055 
   18200    483.61242    -5883.579    49.946937   -1374.6864   -3742.2673   -5126.9608 
   18300    494.90422   -5883.5604    51.113142   -2188.1985   -5163.5162   -6474.3045 
   18400    469.60478   -5883.4955    48.500245   -3409.5219   -6640.8183   -7999.3551 
   18500     477.8872   -5883.4344    49.355643   -4215.6555   -7561.9622   -9665.7501 
   18600    484.22616   -5883.2764    50.010324   -4986.4722   -9323.0009   -10317.134 
   18700     468.6085   -5883.4247     48.39735   -6053.6688   -10411.171    -12159.96 
   18800    495.22552   -5883.2452    51.146325   -6505.4677   -10724.695   -13408.895 
   18900    476.61743   -5882.8892    49.224503    -7386.688   -12092.027   -14566.926 
   19000    484.15691   -5882.7553    50.003172    -7969.686   -12875.669   -15225.824 
   19100    473.43929   -5882.7162    48.896269    -8730.728    -13682.54   -16923.849 
   19200    502.07962    -5882.755    51.854208   -9003.1373    -14129.45   -17544.961 
   19300    501.38491    -5882.831     51.78246   -9557.1664   -15576.929   -17997.546 
   19400    500.55134   -5883.0268     51.69637    -10062.41   -16296.136   -18943.641 
   19500    513.71235   -5883.0152    53.055624   -10303.481   -16293.907    -19695.18 
   19600    481.94598   -5882.8747    49.774829   -10975.235   -16602.872   -20615.139 
   19700    478.30741   -5882.9667    49.399043   -11296.839    -16904.24   -21715.066 
   19800    489.93653   -5883.0216    50.600085   -11351.336   -17293.961   -21404.654 
   19900    496.93701    -5883.039    51.323085   -11384.786   -17738.604   -21666.251 
   20000    499.36091   -5882.8611    51.573424   -11372.119   -17411.257   -21426.322 
   20100     491.2616   -5882.8944    50.736936   -11431.867   -17443.929   -21518.172 
   20200    492.41617   -5883.1305    50.856178    -11377.77   -16816.241   -21760.332 
   20300    506.23709   -5883.1119    52.283587   -11030.011   -16961.394   -20644.733 
   20400    485.34391    -5882.911    50.125763   -10974.296   -16963.087   -20455.224 
   20500    479.13567   -5883.0207    49.484584   -10759.468   -16842.721   -19829.801 
   20600    460.08858   -5883.1222    47.517422   -10620.284   -16471.124   -19605.633 
   20700    464.06272   -5883.3056    47.927867   -10185.542   -16077.121   -18909.628 
   20800    471.74526   -5883.3319    48.721311   -9579.0987    -15271.08   -18432.638 
   20900    489.40182   -5883.3883     50.54486   -8845.4857   -13573.211   -17327.982 
   21000    491.42473   -5883.3446    50.753784   -8232.5684   -13126.994   -16411.334 
   21100    505.39261   -5883.2965     52.19637   -7442.0238    -11613.35   -14826.313 
   21200    501.06355    -5883.181     51.74927   -6817.6196   -11294.632   -13541.963 
   21300    483.75798   -5882.9076    49.961971   -6242.8483   -10885.935       -12480 
   21400    475.41405    -5882.982    49.100219   -5609.0345   -9369.6253   -11817.208 
   21500    488.09811   -5882.9998    50.410215   -4679.9748   -8158.3744   -10292.693 
   21600    484.33562    -5882.875    50.021629   -3877.6888   -6628.0211   -9593.7454 
   21700    473.32646   -5882.8282    48.884615   -3137.7915    -6086.558   -8004.0123 
   21800    490.56484   -5882.8351    50.664975   -2114.9614   -3737.2637   -7075.9236 
   21900    486.95741    -5882.682    50.292404   -1242.2833   -2883.7172   -5251.5233 
   22000    471.00866   -5882.6666    48.645235   -582.48456   -1705.5955   -4133.2761 
   22100    480.14685   -5882.6686    49.589017    393.47723    -1040.816   -2444.1106 
   22200    469.98195   -5882.5356    48.539198    1181.8321    293.91411   -1153.8597 
   22300    483.23761   -5882.4244    49.908227    2188.8193    1837.8938    252.95354 
   22400    478.15211   -5882.3984    49.383003    2952.8182    2774.0878    1431.0994 
   22500    508.75808   -5882.4417    52.543953    4116.5048    4384.5235    3502.2726 
   22600     474.7462   -5882.4857    49.031244     4451.505    5321.8329    3835.0374 
   22700    497.49132   -5882.1614    51.380335    5520.3643    6694.6734    5053.7019 
   22800    484.30561   -5882.0441    50.018529    6072.7167    7505.1478    6205.2209 
   22900    467.44023   -5881.8973    48.276692    6549.6643    8687.8146    7191.2534 
   23000    508.82583   -5881.7708     52.55095    7694.5486    9661.3266    8528.6977 
   23100    482.56534   -5881.7605    49.838796    7954.1643    10036.206    9241.8157 
   23200    494.98786   -5881.5635     51.12178    8684.5142    11567.306    10243.102 
   23300      495.335   -5881.4037    51.157632    9208.8821    11886.839    11257.729 
   23400    523.74368   -5881.5646    54.091648    9929.3504    13271.571    11631.442 
   23500    466.84989   -5881.4725    48.215722    9591.8068    12987.617    11819.866 
   23600    471.95296   -5881.4231    48.742762    9929.1446      13964.4    11650.039 
   23700    478.55802   -5881.7178    49.424925    10162.737    15087.451    11874.745 
   23800    491.24741   -5881.9676    50.735471     10401.91    15108.738     11973.94 
   23900    473.12531   -5882.3036     48.86384    10179.189    14404.384    11877.084 
   24000    474.76566   -5882.2379    49.033254    10239.644    14802.493    11809.408 
   24100    489.45285   -5882.3273    50.550131    10328.829    15374.299    11342.741 
   24200    480.98235   -5882.2324    49.675307    10129.958    15148.813    10918.879 
   24300    465.41259   -5882.0823     48.06728     9778.688    14735.277    10641.209 
   24400     480.7066   -5882.2703    49.646828     9668.997    14296.732    10683.961 
   24500    480.76749   -5882.3237    49.653116    9331.8179    13918.718    9611.8674 
   24600    494.38264   -5882.2882    51.059274    9137.1026    13423.654    9536.1398 
   24700    474.20356    -5882.451    48.975201    8446.1405    12012.743    9156.2178 
   24800    492.25315   -5882.7707    50.839342    8108.3157    11427.116    8784.0676 
   24900    482.69083   -5882.7408    49.851756    7484.0565    10935.155    7064.2825 
   25000    483.20019    -5882.791    49.904363    6925.2588    9573.9115    6971.5251 
   25100    489.06143   -5882.6503    50.509705    6440.3368    9219.2039     6041.571 
   25200    485.68991    -5882.595    50.161499    5789.9974     7726.069    5575.8168 
   25300    484.67002   -5882.3814    50.056165    5181.6981    6834.9664    4707.6798 
   25400    473.09173   -5882.3831    48.860372    4356.5557    5987.5573    3164.8047 
   25500    487.13163    -5882.274    50.310398    3844.4924    4590.1757    2413.4544 
   25600    500.12898    -5882.169    51.652749    3262.7753    3992.4101    1454.2469 
   25700    494.24872   -5882.0538    51.045442    2455.1818    2747.0341   -152.25513 
   25800     492.0595   -5882.0788    50.819343    1645.0717      1789.72    -881.9194 
   25900    467.78807   -5882.1155    48.312617    603.63879    -115.2913   -1687.2214 
   26000    471.93165   -5882.0344    48.740561   -110.54736   -806.15949   -3505.4193 
   26100    466.52222   -5881.9317    48.181882   -911.83104   -2743.7395   -4017.2464 
   26200    487.68348    -5882.109    50.367391   -1431.3103   -3843.7798   -4277.2609 
   26300    493.96055   -5882.2006    51.015681   -2108.7247   -5301.1199   -5305.2219 
   26400    476.63589   -5882.0361    49.226409   -2994.2945   -5925.3106   -7105.8452 
   26500    464.30902   -5882.1561    47.953305   -3879.7364   -7119.8083   -8372.1677 
   26600    505.26329   -5882.3155    52.183014   -4095.9848    -6919.501   -9592.2199 
   26700    456.90217   -5882.1758    47.188333   -5273.0325   -9217.0553   -10630.769 
   26800    489.44181   -5882.1452     50.54899   -5482.5922   -10424.493   -10302.192 
   26900     473.3779   -5881.9584    48.889928   -6187.1919    -11446.03   -11181.866 
   27000    474.68218   -5881.8257    49.024633   -6668.1719   -11858.145   -12077.297 
   27100    476.67156   -5881.9767    49.230094   -7170.3997   -12763.003   -12958.852 
   27200    474.93538   -5882.0867    49.050783   -7628.4146   -13454.667     -13930.9 
   27300    464.46889   -5882.0594    47.969815   -8125.3633     -13123.3   -14996.505 
   27400    484.48383   -5882.0299    50.036936     -8221.88   -13837.105   -14890.106 
   27500    482.98288   -5881.7396    49.881919    -8443.859   -13620.043    -15579.57 
   27600    462.11116   -5881.7533    47.726312   -8910.9084   -14598.299   -16260.052 
   27700    486.73429   -5881.7346    50.269361   -8784.7251   -14444.124   -15820.729 
   27800    499.16054   -5881.7476     51.55273    -8719.559   -14715.552   -16010.813 
   27900    502.27111   -5881.7207    51.873986   -8743.3135   -14065.104   -16800.948 
   28000    476.47468    -5881.661     49.20976   -9080.1206   -14691.027   -16462.343 
   28100    464.96765   -5881.5305    48.021327   -9132.1087   -15005.845   -16318.065 
   28200    481.22445   -5881.3606    49.700311   -8775.2557    -14590.99   -15868.125 
   28300    489.60426   -5881.0304    50.565768   -8439.0136   -14743.459   -14700.965 
   28400    476.78186   -5880.7708    49.241485   -8338.7173   -14078.045   -15207.244 
   28500    478.69328   -5880.6056    49.438895   -8033.8715   -13484.321   -14628.386 
   28600    489.97593   -5880.7192    50.604153   -7649.2193   -13502.862   -13675.405 
   28700    463.76123   -5880.5833    47.896729   -7589.7522   -12820.199   -13914.564 
   28800    491.66223   -5880.6844    50.778312    -6884.484   -11640.558   -13139.701 
   28900    489.51241   -5880.5913    50.556281    -6457.814    -11669.99   -12007.174 
   29000    460.68147   -5880.6364    47.578655   -6325.7839   -11392.184   -11349.496 
   29100    470.05531   -5880.2409    48.546775   -5614.6163   -9698.0326   -11142.733 
   29200    479.38726   -5879.9982    49.510567   -4884.5581   -9273.8346   -10179.761 
   29300    496.04877   -5880.0788    51.231349    -4100.807   -7989.5823   -8472.8001 
   29400    465.56251   -5880.1075    48.082763   -3882.9878   -7303.7939   -8031.1562 
   29500    507.44082   -5880.0746    52.407907   -2761.5117   -6385.6285   -7020.0809 
   29600    490.02862   -5880.0892    50.609595   -2337.7312   -5259.2721   -6246.1288 
   29700    479.38853   -5880.1727    49.510699   -1868.8908   -4009.9684     -5650.21 
   29800    485.96832   -5880.3049    50.190252     -1154.75   -2605.1286   -4700.8085 
   29900    485.17357   -5880.4723    50.108171   -549.07458   -1451.4638   -4335.4197 
   30000    480.93374   -5880.7409    49.670286    13.012096   -824.08603   -3099.1002 
   30100    462.25139   -5880.8117    47.740795    446.12983    160.42228   -2872.3811 
   30200    459.42782   -5880.5677    47.449179    1118.8039    1346.4377   -1219.9087 
   30300    495.22629   -5880.3571    51.146404    2240.8714    2119.2383    137.46483 
   30400    487.48571   -5880.3448    50.346967    2766.5043    2801.9598    1459.4219 
   30500    468.00036   -5880.3598    48.334542    3135.6652    3243.6786    2227.5503 
   30600    470.12814     -5880.38    48.554297      3741.31      3961.74    3569.4939 
   30700    474.37351   -5880.1766    48.992753    4358.9103    4667.6063    4421.1868 
   30800    461.59761   -5880.2592    47.673273    4723.9273    5028.9496    5138.7767 
   30900    472.38796   -5880.3295    48.787688    5315.6179    5644.2084    6293.1832 
   31000    493.34127   -5880.2228    50.951721    6065.2822    6798.0629    7310.0149 
   31100    460.95727    -5880.116     47.60714    6152.8676    7295.2691    7298.4274 
   31200    476.96389   -5880.1306    49.260285    6726.2621    7726.1016    8657.4055 
   31300    479.30523   -5880.1409    49.502096    7084.0455    8590.2932    8612.2005 
   31400    496.35187   -5880.2004    51.262653    7545.3017    9247.5698    8900.4355 
   31500    479.44103   -5880.3638    49.516121    7546.6195    9339.1369    9100.8557 
   31600    481.28902   -5880.2997    49.706979     7765.215    9941.5848    9425.7011 
   31700     462.3136   -5880.5258     47.74722    7642.2226    9680.2461    9270.9183 
   31800    496.70236   -5880.5881    51.298851    8140.8246    10066.531    10094.689 
   31900     495.7869   -5880.7205    51.204304    8125.6044    10209.539    10295.484 
   32000    482.74228   -5880.4953     49.85707    8000.9795    9961.4083    9297.1055 
   32100    466.78938   -5880.4065    48.209473    7736.5931     9900.704     9477.829 
   32200    473.79268   -5880.1332    48.932766    7755.6646    9203.2168    10013.166 
   32300     463.8813   -5879.8612     47.90913    7544.6425    7861.5707     10319.63 
   32400    488.87046   -5879.8907    50.489982    7622.7143    7685.2133    10853.723 
   32500    473.06563   -5879.8179    48.857677    7167.9374    7288.1021     10550.59 
   32600     488.6955   -5879.9635    50.471912     7024.723    7058.6504    9701.0488 
   32700    468.99226   -5879.9652    48.436984    6464.1639    6608.3501     9221.266 
   32800     499.1006   -5879.9446    51.546539    6432.1471    6726.8724    8162.8636 
   32900    470.67138   -5879.9614    48.610402    5660.1517     6153.888    7549.7986 
   33000    475.78781   -5880.1999    49.138821    5217.2654    5375.8896    6586.5361 
   33100    458.34959    -5880.419    47.337821    4481.7805    4063.9827    5873.3493 
   33200    493.81293   -5880.4978    51.000435    4398.9418    3882.3837    5055.8081 
   33300     459.3864   -5880.5821    47.444901    3456.5602     2985.082    4030.3406 
   33400    504.73427   -5880.4855    52.128378    3504.5873    1915.1709    4197.7752 
   33500    495.17132   -5880.4597    51.140728    2817.4902    899.80194    3699.7361 
   33600    489.58875    -5880.469    50.564166    2232.3536   -122.34843    2416.7258 
   33700    478.01537   -5880.4587    49.368881    1515.2409   -1139.3378    2375.4617 
   33800    452.44878   -5880.3991    46.728393    632.57106   -2345.4618    633.58181 
   33900    488.62403   -5880.2607    50.464531    486.53147   -2537.6952     82.87242 
   34000    469.80854   -5880.5279    48.521289   -355.97277   -3836.5425   -1307.4787 
   34100    466.08212   -5880.6654    48.136428   -1008.7129    -5601.942   -1667.0453 
   34200    492.66314   -5880.7044    50.881685   -1293.7644   -5837.6167   -2190.8755 
   34300    457.09932   -5880.7231    47.208695   -2306.3047   -7665.9306    -2731.309 
   34400    489.92249   -5880.6964    50.598634   -2464.2708   -7853.6134   -3534.6035 
   34500    499.63063   -5880.6566     51.60128   -2897.5303   -7791.1895   -4618.7595 
   34600    450.94819   -5880.8602    46.573414   -4037.1537   -9080.8945   -6305.2796 
   34700    492.54084   -5880.7849    50.869054   -4039.2213   -9309.6401   -6415.8573 
   34800    476.93638   -5880.7182    49.257444   -4663.9931   -10658.284   -7352.5619 
   34900    475.55558   -5880.8419    49.114837   -5153.7892   -11048.347   -8571.7473 
   35000    510.39748   -5881.0537    52.713268   -5191.7809   -11196.688   -8307.5059 
   35100    459.69707    -5881.326    47.476987   -6206.8276   -12421.294    -9719.645 
   35200    491.27381   -5881.2768    50.738197   -6125.6162    -12757.82   -9616.4981 
   35300    483.59417   -5881.2911    49.945052   -6509.4755   -13091.404   -9922.2828 
   35400    477.24438   -5881.0869    49.289254   -6796.8841   -13263.873   -11351.619 
   35500    459.20819     -5881.07    47.426496   -7206.9777   -13327.165   -12100.074 
   35600    474.71883   -5880.8886    49.028418   -7133.2061   -13534.473   -11751.608 
   35700    466.85416    -5880.807    48.216163   -7322.7451   -14317.963   -11433.934 
   35800    453.72268    -5880.614    46.859959   -7531.5032   -14226.638   -11949.127 
   35900    478.58494   -5880.3774    49.427705   -7195.9177   -13923.324   -11585.346 
   36000     491.4105    -5880.341    50.752314   -6972.3592   -13389.439   -11476.147 
   36100    487.00713   -5880.3139    50.297539   -6944.9281       -13413    -11343.34 
   36200    462.29784   -5880.1683    47.745592   -7110.0363   -12926.847    -11767.09 
   36300    474.14505   -5879.9812    48.969159   -6748.3003   -12740.722   -11495.762 
   36400    459.41406   -5879.9163    47.447759   -6709.6413    -12462.42   -10977.642 
   36500    469.02648   -5879.7898    48.440518   -6324.7681    -12036.49   -10355.987 
   36600    488.29975   -5879.7504    50.431039   -5787.7158   -11354.176   -10060.883 
   36700    466.07695    -5879.606    48.135894   -5711.1532    -11203.64   -9636.8317 
   36800    480.67691    -5879.612    49.643761   -5201.3824   -10515.432   -9058.2291 
   36900    486.54944    -5879.496     50.25027   -4724.8228   -9653.0736   -8052.0685 
   37000    469.85946   -5879.2437    48.526548   -4462.7388   -8976.2896    -8099.381 
   37100    467.34507   -5879.4079    48.266865   -4077.6634   -8437.6144    -7512.311 
   37200    477.33083     -5879.43    49.298182   -3510.6575   -7946.5975    -6587.269 
   37300    472.99689   -5879.3865    48.850578   -3072.0402    -6649.638   -5775.3639 
   37400    470.19651   -5879.1876    48.561358   -2550.8858   -6375.8976   -4861.7265 
   37500    485.36972   -5879.0602     50.12843    -1825.949   -5229.7393   -3632.9905 
   37600     475.5611   -5879.1568    49.115406   -1479.1375   -4487.1194   -3684.5724 
   37700    472.36628   -5879.2302    48.785449   -1026.7187   -3843.8319    -3164.602 
   37800    465.01003   -5879.2736    48.025704   -625.96301   -2917.6507   -2460.1991 
   37900    468.38273   -5879.1495    48.374033   -25.469301   -1692.3561   -1627.0768 
   38000     467.7999   -5879.1985    48.313839    452.32785   -1140.7467   -1110.3454 
   38100    467.87864   -5879.3158    48.321971    881.11958   -819.94387   -431.88127 
   38200    483.49576    -5879.331    49.934889    1546.1565    447.80117    253.42019 
   38300    475.04344   -5879.2833    49.061943    1955.6798    879.63918    1247.3583 
   38400     473.7627   -5879.2444     48.92967     2459.317    1733.2536     2190.879 
   38500    485.29827    -5879.015     50.12105    3130.9388    2561.8094    3069.3197 
   38600     494.2201   -5879.0138    51.042487    3699.6702    3090.1887    3785.8111 
   38700    495.63262   -5878.9375     51.18837    4165.8095    3904.1829    4374.3522 
   38800    479.08863   -5878.8293    49.479725    4402.9712    4334.4834     5271.999 
   38900    458.40309   -5878.7957    47.343346    4535.4768     5027.897    4827.5207 
   39000    473.99031   -5878.6191    48.953177    5077.9981    5515.7986    6122.4852 
   39100    478.77138   -5878.5118     49.44696    5442.3023     6099.866    6111.9906 
   39200    472.01957   -5878.7089    48.749641    5560.7357     6596.278     6418.272 
   39300    479.54689   -5878.9882    49.527055    5799.5586     6630.229     7277.974 
   39400    510.45081   -5878.8504    52.718776    6394.4482    7111.6466    8276.3092 
   39500    478.09884   -5878.6774    49.377502    6197.6556    6905.4355    7980.5583 
   39600    480.10815   -5878.6633     49.58502    6337.9056    7455.0099    8317.5452 
   39700    484.33988   -5878.7382    50.022068    6443.3447    7648.3863    7922.8818 
   39800    464.37056   -5878.6205     47.95966    6252.5649    7670.6155    7650.0705 
   39900    483.13711   -5878.6239    49.897848    6478.8069    7746.3716    8051.9062 
   40000    496.12331   -5878.5887    51.239048     6598.833    7799.3455    8457.7337 
   40100     471.7923   -5878.5711    48.726169    6229.5366    7788.8918    7502.4209 
   40200    474.94654   -5878.5245    49.051936    6157.1125    6984.8446    7997.4815 
   40300    480.99686   -5878.3654    49.676806    6095.1101    6872.6694    7762.2622 
   40400    469.21407   -5878.1021    48.459892    5804.0393    6694.7118    7023.4555 
   40500    483.05948   -5877.7919     49.88983    5823.1205    6275.7924    7688.6906 
   40600    448.72162   -5877.7518    46.343456    5145.2634    4939.1185    7151.7482 
   40700     493.5758   -5877.7753    50.975944    5371.6663     5049.622     7419.192 
   40800    481.99745   -5877.9047    49.780145    4906.4457    4560.3974    6303.8451 
   40900    481.53568   -5877.9344    49.732454    4573.1578    4145.9325    5925.9168 
   41000    500.60802   -5877.5984    51.702224    4511.7327    3292.4929    6201.4314 
   41100    488.44793   -5877.4861    50.446343    3987.8087    3547.5252     4818.662 
   41200    479.72771   -5877.8408    49.545729    3355.5029    2386.5046    3682.3142 
   41300    486.87866   -5877.9243    50.284271    2939.2953     1714.947    3907.7582 
   41400    486.28242   -5877.8237    50.222691    2480.6136    1171.3614    2676.3288 
   41500     457.5345     -5877.88    47.253639    1643.2276    531.91098    1036.9638 
   41600     451.3132    -5877.595    46.611111    1120.0501    143.56313     335.5325 
   41700    478.70164   -5877.1955    49.439758    1055.2167   -354.97208    196.81615 
   41800    484.70074   -5876.9938    50.059338    695.71233   -652.90226    -910.1826 
   41900    469.71411   -5876.9374    48.511536    27.037945   -1450.9273   -1849.8033 
   42000    491.21698   -5876.7906    50.732327   -196.52832   -1699.2968   -2569.7341 
   42100    483.16421   -5876.7593    49.900647   -781.34523   -2585.8542   -3165.4394 
   42200    471.03814   -5876.7441     48.64828   -1407.8118   -3749.4709   -4257.0818 
   42300    476.16032   -5876.7496    49.177293   -1863.8452   -4031.5976   -5212.6333 
   42400    467.15981   -5876.6282    48.247731   -2440.5417   -4578.9128   -6160.9546 
   42500    474.94828   -5876.7475    49.052115   -2846.2944   -4907.8484   -7139.9976 
   42600    447.76676   -5876.6024    46.244839   -3590.7657   -6281.2245     -8097.04 
   42700    477.65235   -5876.3752    49.331389   -3613.4841   -5898.8641   -8081.8436 
   42800    463.24413   -5876.0909    47.843324   -4085.3727    -6601.504   -9163.5774 
   42900    481.34034   -5876.0659     49.71228   -4207.0899   -7194.5748   -9018.3695 
   43000    482.57808   -5875.9872    49.840112   -4545.3425   -7889.1747    -9408.874 
   43100    483.38556   -5875.9408    49.923508   -4840.2879   -8653.8857   -9677.6321 
   43200    479.22841   -5876.0677    49.494162   -5181.2747   -9012.9915   -10240.723 
   43300    487.44761   -5876.0767    50.343031   -5312.9082   -8860.7975   -10677.909 
   43400    472.64184   -5875.9186    48.813909   -5659.8022   -9570.2905   -11054.663 
   43500    473.03404   -5875.6388    48.854415   -5771.2251    -8908.353   -11702.771 
   43600     474.3611   -5875.5011    48.991471   -5866.6603    -8939.304   -12127.219 
   43700    479.18361   -5875.4373    49.489535   -5887.8309   -9275.2845    -11642.92 
   43800    469.04737   -5875.4788    48.442676   -6084.4613   -9486.5342   -11954.488 
   43900    452.62573   -5875.5617    46.746668   -6306.9201   -10273.535   -11998.598 
   44000    477.14241   -5875.6422    49.278723   -6026.9832     -9869.69   -11434.315 
   44100    490.49815   -5875.7265    50.658087   -5799.0233   -9458.4425    -11897.26 
   44200    473.97733   -5876.0033    48.951837   -5943.4077   -9347.5966   -12127.186 
   44300     482.7925   -5876.0493    49.862257   -5732.1451   -9483.6317   -11689.018 
   44400    492.09781   -5875.8476    50.823299   -5428.4003   -8204.3858   -11493.416 
   44500    484.00954   -5875.7903    49.987952    -5317.288   -8589.0382   -11081.346 
   44600    474.01488   -5875.5848    48.955714    -5198.544   -9196.6961   -9924.5077 
   44700    471.44335    -5875.669     48.69013   -5002.0961   -8983.9369   -9624.6672 
   44800    479.97378   -5875.8529    49.571142   -4671.0084    -8091.361   -9434.8463 
   44900    474.05635    -5876.116    48.959998   -4517.4724    -7394.661   -9448.2731 
   45000     466.6818   -5876.2381    48.198363   -4309.8012   -6606.2758   -9610.6089 
   45100    479.37922   -5876.4122    49.509737   -3823.0074   -5917.5132     -9178.08 
   45200    491.69266   -5876.6416    50.781455   -3355.8108   -5456.4639   -8079.6369 
   45300     464.4268   -5876.5005    47.965468    -3237.548   -5397.7492   -7372.2836 
   45400    493.48797   -5876.7883    50.966873   -2518.6112   -4579.7809   -6431.3614 
   45500    451.03033    -5876.866    46.581896   -2601.8915   -4475.9977   -5957.6112 
   45600    483.26803   -5876.7703    49.911369   -1753.9201   -4366.3255   -4729.9513 
   45700    457.69559   -5876.7716    47.270277    -1587.563   -3835.7937   -4152.2375 
   45800    483.00292   -5876.4532    49.883989   -727.10212   -2067.0287   -3460.2886 
   45900    497.41544   -5876.5887    51.372497   -76.228808   -1377.8752   -2096.9891 
   46000     488.5209    -5876.445    50.453879     316.7199   -1024.8485   -1296.9211 
   46100    480.91962   -5876.5125    49.668828    648.75879   -395.96208   -1259.9203 
   46200    509.21054   -5876.8224    52.590682    1381.0432    713.19247   -356.86559 
   46300    468.61203   -5877.0819    48.397714    1283.0697    818.46039   -472.22298 
   46400     459.5905   -5877.3587    47.465981    1545.8063    1324.8038   -71.434357 
   46500    474.92766   -5877.4252    49.049985    2143.5121    1861.9763    1083.3526 
   46600    452.56351   -5877.5406    46.740242    2270.3366    2044.8925    1435.5499 
   46700    473.49406   -5877.5362    48.901924    2917.6612    2466.4974    2822.2794 
   46800    481.50756   -5877.7324    49.729549    3395.1275    3197.6184     3184.327 
   46900    476.74347   -5877.6469     49.23752    3695.5894    4079.0829    3764.5683 
   47000     467.8738   -5877.8771     48.32147    3867.8443    4765.9985    3795.8449 
   47100    501.67378   -5877.8749    51.812294    4584.9788     5520.761    4801.2545 
   47200    486.99713   -5877.7182    50.296507    4744.2186    5159.0456    5513.5402 
   47300    468.87434   -5877.5849    48.424805    4789.5241    5300.8492    5738.6537 
   47400    461.20649    -5877.661    47.632878    4927.7877    5124.1195    6555.4178 
   47500    497.66579   -5877.7257    51.398354    5568.5274    5994.3928    7252.8059 
   47600    479.21266   -5877.4567    49.492535    5602.7186     5863.884    7117.1994 
   47700    498.67128   -5877.4814    51.502199    5970.7987    6220.0796    7955.0389 
   47800    483.98086   -5877.0046    49.984989    5981.8568    6524.4926      7775.36 
   47900    490.31118    -5876.682    50.638778    6162.8322    7030.9693     7900.383 
   48000    463.24757   -5876.8783    47.843679    5749.3639    6705.6461    7531.2299 
   48100    494.71911   -5877.1073    51.094024    6042.2494    6435.0885    7912.2542 
   48200    497.14862    -5876.948    51.344941    6053.3824    6404.5712    8091.6556 
   48300    459.85697   -5876.8091    47.493502     5541.803    5757.0282    7438.0942 
   48400    474.70008   -5876.6837    49.026481    5582.5498    5722.4386    7482.8497 
   48500    483.49703    -5876.536    49.935021    5541.7409    5634.2561    7394.4358 
   48600     463.9966   -5876.7117    47.921038    5060.7656    5263.7295    6512.0436 
   48700    470.49861   -5876.7723    48.592558    4876.3895    5167.5475     6359.876 
   48800    457.60049   -5876.8865    47.260455    4396.0764    4262.4443    5568.4271 
   48900     500.1047   -5876.8808    51.650242     4592.467    4405.1511    5378.9776 
   49000    478.52268    -5876.923    49.421274     3959.608    3360.9246    5004.4389 
   49100    465.90968   -5876.7829    48.118619    3482.4413    2720.3767    4013.5968 
   49200    490.12897   -5876.7928    50.619959    3393.9128    2189.9678    4339.1296 
   49300    450.01261   -5876.6563    46.476788    2522.9561     1535.944    2721.8382 
   49400    460.35364   -5876.6757    47.544797    2230.2449    893.80548    2438.0325 
   49500    473.58183   -5876.5932     48.91099    2006.5453    697.64498    2080.5315 
   49600    494.66924   -5876.6003    51.088873    1841.8643    702.83361    1243.8094 
   49700    496.37879   -5876.6267    51.265433    1427.6635   -482.93357    1286.4009 
   49800     467.2744    -5876.285    48.259565    703.98496   -1276.7068    365.63147 
   49900    474.93344   -5875.8617    49.050582    394.10276   -1910.4524    143.26234 
   50000    463.30108   -5875.7214    47.849206   -156.98029   -2811.9941   -636.04511 
   50100    460.32557   -5875.6777    47.541898   -601.50443   -3696.3141   -1244.0348 
   50200    485.81424   -5875.5872    50.174339   -698.04559   -3425.6528   -2280.1541 
   50300    451.81611   -5875.5056    46.663051   -1506.4118   -4740.9939   -3304.2546 
   50400    473.97084   -5875.6324    48.951166   -1693.5067   -4821.2475   -3853.5001 
   50500    466.55956   -5875.5412    48.185738   -2158.6208   -5109.1863     -4510.96 
   50600      459.496   -5875.8271    47.456221   -2672.8349   -5858.7039   -5086.4449 
   50700    481.62359   -5875.7168    49.741534   -2757.4971   -5975.0646   -6177.1667 
   50800     481.8218   -5875.8104    49.762004   -3131.8213   -6355.8952   -6668.6258 
   50900    465.99476   -5875.6166    48.127405   -3631.5853   -6320.8028   -7769.3773 
   51000    463.82215   -5875.5898    47.903021   -3974.6683   -7000.6941   -8133.2166 
   51100    483.15808   -5875.6257    49.900014   -4046.1614   -7215.8677   -8121.7595 
   51200    475.09167   -5875.6563    49.066924   -4408.8286   -7461.6873   -9215.6112 
   51300    444.25286   -5875.5512    45.881927   -4986.4899   -8199.1663   -9714.6338 
   51400     471.3482   -5875.3581    48.680302   -4811.0719   -8168.2082   -9545.0297 
   51500    476.95865   -5875.5607    49.259744   -4973.7865    -8080.514    -10103.93 
   51600    485.83239   -5875.2894    50.176213   -4955.8269   -8242.6358   -9956.1436 
   51700    454.80809   -5875.1626    46.972059    -5420.982    -8440.946   -10938.141 
   51800    483.39533   -5875.0878    49.924516   -5189.9919   -8161.2108   -10706.401 
   51900    460.24624   -5875.2117    47.533705   -5547.6511   -8475.9212   -11026.665 
   52000    484.46754   -5875.4925    50.035253   -5354.0593   -8730.7061   -10686.526 
   52100      489.883   -5875.6214    50.594556   -5292.3032   -8788.6303   -10739.147 
   52200     476.3176   -5875.6826    49.193537   -5390.3094   -8913.3324   -10605.799 
   52300    474.31019   -5875.7297    48.986214   -5357.0087   -9560.8212   -9903.7669 
   52400    486.43595   -5875.8249    50.238549   -5137.5447   -8871.1504   -9686.9374 
   52500    470.08548   -5875.8533    48.549891   -5225.7766   -8718.4713   -10299.432 
   52600     481.7061   -5876.1802    49.750055   -4988.2779    -8558.355   -9710.4841 
   52700    476.10054   -5876.5375    49.171119   -4953.2808   -8213.4046   -9827.0724 
   52800    475.10598    -5876.881    49.068402   -4818.1415   -7912.5413   -9988.9622 
   52900    484.04274   -5877.1316     49.99138   -4489.1529   -7264.5688   -9524.4813 
   53000    470.01485   -5877.3716    48.542596   -4370.4478   -7166.9587   -9053.7613 
   53100    470.33605   -5877.5117    48.575769   -4057.6402   -6577.3644   -8879.1729 
   53200    472.40443    -5877.535    48.789389    -3702.601   -6420.9891    -7961.028 
   53300    472.26447   -5877.4619    48.774934   -3295.4014   -5754.8521   -7557.6023 
   53400     485.2281   -5877.3339    50.113803   -2703.2066   -5152.6325   -6356.1608 
   53500     483.7796   -5877.3786    49.964204   -2315.1116   -4519.1947   -5939.5691 
   53600    470.75717   -5877.1512    48.619262   -2038.7928   -3770.0341   -5637.1077 
   53700    480.93614   -5877.1051    49.670535   -1504.4658    -3134.272   -5061.1274 
   53800    462.36353   -5877.0796    47.752376   -1275.3009   -2467.1133   -5093.7747 
   53900    481.58823    -5877.013    49.737881   -581.99924   -1916.3689   -3475.8149 
   54000     468.2684   -5877.0905    48.362225   -343.78264   -897.00004   -3042.4002 
   54100       467.87   -5877.1593    48.321078    71.103805   -200.49977   -2780.9488 
   54200    483.22838   -5877.6005    49.907274    591.24439    622.45137   -2406.3333 
   54300    479.64332   -5877.6641    49.537013    953.77178    830.23926    -1042.708 
   54400    471.69882   -5877.4866    48.716514    1324.7711    1383.3659   -570.24838 
   54500    455.82886   -5877.4233    47.077483    1536.6394    2176.8052   -108.74639 
   54600    455.68836    -5877.214    47.062973    1964.7782    3189.4627   -545.10547 
   54700    485.07767   -5877.1043    50.098267    2720.1044      4090.65    789.88229 
   54800    487.53183   -5877.0003     50.35173    3137.3812    4120.8496    2402.3536 
   54900    479.30749   -5876.8873    49.502329    3437.7155    4037.1881    3012.4265 
   55000    465.04167   -5876.9309    48.028972    3586.9486    4685.7903    2948.7506 
   55100     457.9339   -5876.8749     47.29489     3799.205    4779.6274    3044.4795 
   55200    499.55935   -5876.9885    51.593919    4574.6203    5440.7499    4828.5584 
   55300    484.39586   -5876.9894    50.027851    4643.5224    6137.9084    4028.9153 
   55400    469.14843   -5876.9162    48.453113    4689.6894    6231.8964    4697.9677 
   55500     480.5258   -5876.8992    49.628155    5019.4314     7368.536    4562.9863 
   55600    501.48496   -5876.8217    51.792793     5466.913    7777.1876    5577.5721 
   55700    498.27637   -5876.5784    51.461414    5632.4377    7621.6551    5416.5051 
   55800    473.82954   -5876.4491    48.936573    5464.2423    7756.4146    5411.9593 
   55900    476.41865    -5876.472    49.203973    5547.1159    7961.4049    4905.7134 
   56000    494.89824   -5876.5979    51.112523    5764.0807    7872.2817    5567.9757 
   56100    482.43018   -5876.8546    49.824837    5529.0663    8078.7728    5865.8414 
   56200    488.09931   -5876.9694    50.410338    5523.4416    7727.2691    5609.1169 
   56300    480.17073   -5876.8569    49.591484    5396.1193    7249.0375    5685.5289 
   56400    471.93723    -5876.646    48.741137    5252.3633    7500.1494    5501.5516 
   56500    483.17108   -5876.5738    49.901356    5260.4299    7481.2253    4999.8823 
   56600    478.96216    -5876.484    49.466664    5022.7333    7340.7087    4638.5007 
   56700    492.61957   -5876.5425    50.877186    4995.3139    6801.2551     4739.714 
   56800    479.74026   -5876.4391    49.547025    4623.5795    6010.5059    4282.2752 
   56900    478.42007    -5876.365    49.410678    4352.0725    6253.2845    3564.7217 
   57000    474.44761   -5876.2103    49.000407    4043.2508    5597.3213    3054.5464 
   57100    475.69797   -5876.0237    49.129542    3738.3235    4971.0536    2811.9978 
   57200    482.34404   -5876.2368    49.815941    3401.1617    4588.8288    2669.4022 
   57300    473.76073   -5876.4853    48.929467    2849.0307    2583.7001    2290.6851 
   57400    477.11754    -5876.705    49.276153    2416.7606    1798.4262    1828.0506 
   57500    511.04043   -5876.7907    52.779671    2371.4735    1902.1292    1809.2537 
   57600    484.26315   -5877.1033    50.014144    1582.7822    913.90088    673.53786 
   57700    472.89832   -5877.0908    48.840398    1039.5803    732.92707   -430.95761 
   57800    456.96569   -5876.9454    47.194894     451.4066   -719.00522   -645.27236 
   57900    455.02171   -5876.8088    46.994121    43.708112   -1138.2944   -1183.3012 
   58000    485.99969    -5876.848    50.193492   -24.794202   -1683.3408   -1577.6741 
   58100    467.11082   -5876.9705    48.242671   -699.50863   -1958.6105    -2834.197 
   58200    459.56709   -5877.1914    47.463563   -1249.8186   -2594.6354   -4059.5027 
   58300    478.99096   -5876.9194    49.469638   -1363.7805   -2781.8008   -4703.3059 
   58400    480.13679   -5876.9504    49.587978   -1737.8059   -3099.6297   -4898.2988 
   58500    468.66154    -5877.116    48.402828   -2278.0174   -4261.7704   -5786.9722 
   58600    470.30883   -5877.0495    48.572958   -2599.5666   -4386.2626   -6710.5929 
   58700    507.57363   -5876.8927    52.421623    -2458.054   -4689.4638   -6290.6763 
   58800    483.07202   -5876.8561    49.891125   -3077.8498    -5517.779   -7257.8367 
   58900    471.90338   -5876.7819    48.737641   -3490.6689   -5694.7353    -8002.943 
   59000    481.56603   -5876.6603    49.735589   -3659.5495    -6234.826   -8063.5905 
   59100    489.12606   -5876.4285     50.51638   -3798.9522   -5773.4445   -8717.4994 
   59200     471.9704   -5876.2881    48.744563   -4218.6414    -7141.575    -8380.697 
   59300    486.85816    -5876.283    50.282154   -4245.6754   -6947.0553   -9228.4282 
   59400    454.79355   -5876.3171    46.970557   -4808.5623   -7301.0941   -9696.2038 
   59500    468.66305   -5876.2664    48.402983   -4748.5313   -7554.7345   -9347.1481 
   59600    467.85166   -5876.1511    48.319184   -4836.2504   -8063.8119   -9798.6016 
   59700    469.29309   -5876.1162    48.468054   -4899.2326   -8354.3386   -9523.8346 
   59800    474.97004   -5876.0142    49.054362   -4873.3911    -7678.485   -9973.2196 
   59900    495.44932   -5875.8247    51.169439   -4629.3134   -7946.5069   -8979.2792 
   60000    448.57821    -5875.764    46.328644   -5219.8683   -8204.5022   -10016.469 
   60100    464.12846   -5875.7574    47.934656   -5000.7778   -8145.8894   -9650.4873 
   60200    473.54492   -5875.6889    48.907178   -4845.4613   -8274.5246   -9080.9704 
   60300    467.09986   -5875.5683    48.241539   -4817.4701    -8111.034   -8890.1965 
   60400    452.55954    -5875.838    46.739832   -4935.6557   -8473.9726   -9150.2712 
   60500    462.60728   -5875.9316    47.777551   -4676.5463   -8535.7172   -8665.6523 
   60600    481.32608   -5875.8337    49.710807   -4239.6863    -7718.778   -8132.2962 
   60700    478.81812   -5875.6802    49.451788   -4016.4867   -7191.6893   -8086.9385 
   60800    462.49763   -5875.6441    47.766226   -3993.3803   -7366.0333   -7296.7793 
   60900    471.21211   -5875.6435    48.666248   -3625.8065   -7189.9307   -6515.1389 
   61000    475.14437   -5875.8084    49.072367   -3343.6633   -6820.1479   -6342.8297 
   61100    464.90556   -5875.6421    48.014914   -3142.0635   -6839.6936   -5510.6503 
   61200     476.1117   -5875.8265    49.172272   -2732.2647    -6265.476   -5117.5272 
   61300    447.60438     -5875.78    46.228069   -2770.6376   -6061.0434   -5258.4038 
   61400    477.12014   -5875.6696    49.276422   -2076.5477   -4851.3864   -3967.0071 
   61500    440.31478   -5875.8256    45.475207   -2228.7984   -5020.0532   -4150.7345 
   61600    473.23334   -5876.0178    48.874998    -1533.647   -3565.3408   -3591.9523 
   61700    469.90527   -5876.0763    48.531278    -1232.436   -3160.4601   -3184.6027 
   61800    474.85274   -5875.7099    49.042247    -726.2833   -2802.6384   -2246.7704 
   61900    489.49962   -5875.4705     50.55496   -138.89322   -2576.7042   -1198.1053 
   62000    462.87641   -5875.5893    47.805346   -116.17146   -1598.0454   -1253.9933 
   62100    486.15788   -5875.8053     50.20983    507.35307   -1254.8714   -461.95416 
   62200    468.71876   -5875.6559    48.408738    696.95132   -608.51825   -94.853543 
   62300    488.71903   -5875.3627    50.474342    1343.5542   -36.531631     760.6974 
   62400     497.4645   -5875.2308    51.377564    1850.3192    1061.9237    1323.0014 
   62500    469.62855   -5875.1593    48.502699    1921.5029    1093.0289    1679.1091 
   62600    479.41755   -5875.2071    49.513697    2387.1733    1636.5653    2418.8616 
   62700    467.75921    -5875.158    48.309636    2581.2691    2785.9345    2481.7989 
   62800    481.54289   -5875.1834    49.733198    3059.5097    3912.6105    2545.5331 
   62900    439.29375   -5875.1838    45.369756    2848.9891    3320.7797    2630.9341 
   63000    475.58925   -5875.0511    49.118313    3564.3153    4281.1597    3239.7886 
   63100    480.97244   -5874.7964    49.674283    3902.9868    4470.7437    3971.5844 
   63200    460.38973   -5874.8058    47.548525    3868.4177    4121.3978     4691.454 
   63300    461.87801   -5874.8768    47.702233    4081.0258    4583.9604    4520.7366 
   63400    475.69342   -5875.0454    49.129072    4370.2145    4441.6139    5091.5799 
   63500    470.26406   -5874.9586    48.568334    4461.2525    4953.3365     4906.777 
   63600    485.22154    -5874.792    50.113126    4781.0085    6035.7902     5140.094 
   63700    460.65261   -5874.8145    47.575674     4543.507    5827.2819    4679.4796 
   63800    462.89738   -5874.9953    47.807512    4588.2701    6245.7494    4373.5479 
   63900    467.34398   -5874.9783    48.266752    4643.3569     6832.864    4407.6556 
   64000    482.81381   -5875.0819    49.864458    4816.5326    6919.4901    4748.1661 
   64100     462.7063   -5874.9964    47.787777    4569.5166    6488.6871    4518.2418 
   64200     452.5362   -5875.4285    46.737421    4309.9052    6033.8063    4200.3356 
   64300    476.74796   -5875.6298    49.237983    4441.0398    5367.8885    4907.5576 
   64400    475.89265   -5875.8691    49.149648    4215.3104    5192.3934    4386.5998 
   64500    468.35394    -5875.867    48.371059    3957.7805    4362.7321    4362.3143 
   64600    457.62522    -5875.739    47.263009    3699.5341    4143.4895    3530.6242 
   64700    470.26058   -5875.6848    48.567974    3664.5188    4024.0603    3895.4701 
   64800    467.12973   -5875.8344    48.244624    3405.0884    3969.6514    3647.2112 
   64900    468.10705   -5875.7939     48.34556    3202.1388    3620.0279    2675.4771 
   65000    489.51772   -5875.7809     50.55683     3198.535     3271.383    3017.5655 
   65100    466.56127   -5875.8918    48.185914    2587.1327    2053.5244     2752.259 
   65200    467.57961   -5876.1353    48.291087    2206.8142     1438.216    2087.4196 
   65300    460.25581   -5876.3219    47.534694    1760.5537     2035.709    250.57248 
   65400    501.79393   -5876.3479    51.824703    1903.3183    1991.5565     114.6887 
   65500    455.09998   -5876.4549    47.002205    973.00501    1166.1632   -1302.1621 
   65600     495.8202   -5876.3883    51.207743    1146.7716     1594.083   -1447.6413 
   65700     476.9862    -5876.325    49.262589    586.62086    539.49919   -1923.6421 
   65800    492.85144   -5876.2633    50.901133    457.12369    106.52726   -2219.3648 
   65900    483.57251   -5876.2036    49.942815   -10.505475   -1603.5335   -1944.8795 
   66000    458.60434   -5875.8447    47.364131   -582.99705   -1623.4287    -3155.979 
   66100    468.29683   -5875.9025    48.365161   -833.52143   -1652.1543   -3830.2473 
   66200    483.42366   -5875.9278    49.927443   -1022.5765   -2466.4524   -3730.5525 
   66300     484.0644   -5875.8564    49.993617   -1358.9132    -3207.449   -3976.1657 
   66400     473.0462   -5875.7655     48.85567   -1791.5091   -3801.8104    -4783.413 
   66500    487.40635   -5875.6191    50.338771   -1893.1357   -3818.9249   -5094.3557 
   66600    504.70651   -5875.4419     52.12551   -1968.9715   -4087.9838   -5432.6197 
   66700    467.44414   -5875.2764    48.277096    -2652.096   -4307.1526   -6197.0539 
   66800    456.11924   -5875.2591    47.107474   -3030.5739   -4783.3671   -7164.6875 
   66900    460.11685   -5875.4153    47.520342   -3250.1835   -5345.3545   -7352.5992 
   67000    500.82451   -5875.1496    51.724582   -2921.4701   -5077.3402   -6912.4446 
   67100    447.04456   -5874.9988     46.17025   -3715.1746   -5983.7785   -7784.5241 
   67200    452.18121   -5875.2512    46.700758   -3892.6049   -5893.0132   -8247.4344 
   67300    468.13797   -5875.4213    48.348754   -3891.7088   -6980.6417   -8620.0935 
   67400    485.63439   -5875.3991    50.155764   -3784.1583   -6407.1444   -8042.5912 
   67500    462.05435   -5875.1371    47.720444   -4116.6246   -6807.9264   -8573.7836 
   67600    471.26687   -5875.0809    48.671903   -4078.4316   -6901.3552   -8242.5099 
   67700     484.7627   -5875.0446    50.065738    -3952.557    -6887.273   -7935.2638 
   67800    484.09352   -5874.9974    49.996625   -3984.3838    -6845.559   -8269.7771 
   67900    469.73304    -5874.993    48.513491   -4136.4172   -6946.0844   -8286.5445 
   68000    467.98695    -5874.986    48.333157   -4110.4838    -7053.629   -8270.1447 
   68100    483.12457   -5875.0312    49.896552   -3887.7762   -6944.9325   -7574.0108 
   68200    471.45288   -5875.2457    48.691114   -3976.0435   -7501.5814   -7534.2894 
   68300     474.4874   -5875.1893    49.004516   -3858.8788   -7154.8592   -7550.2086 
   68400    489.41256   -5875.2984    50.545969   -3595.7791   -7215.0729   -7057.5207 
   68500    482.54745   -5875.1559    49.836949   -3502.6258   -6650.9508   -6912.4469 
   68600    465.88856   -5875.0856    48.116438    -3549.759   -6633.7748   -6974.3313 
   68700    457.20949   -5875.3583    47.220074   -3594.7841   -7159.3724   -6546.9501 
   68800    463.20406   -5875.1639    47.839186   -3288.5287   -6505.7946   -6018.2866 
   68900     483.2609   -5874.8658    49.910633   -2774.6594   -5887.8858   -5308.3837 
   69000    467.41259   -5874.5221    48.273838   -2648.9771   -5466.2168   -5400.2043 
   69100    450.17946   -5874.5296     46.49402   -2615.1238   -5348.3721     -5008.26 
   69200    451.86654   -5874.5073     46.66826   -2339.6588   -5268.4433   -4443.6481 
   69300    464.61958   -5874.8603    47.985378    -1969.076   -4303.4424   -4632.3485 
   69400    473.90365   -5874.8777    48.944227   -1571.4798   -3934.6893   -4150.0937 
   69500    484.90927   -5874.9815    50.080875   -1150.0456   -3132.8251   -3055.5174 
   69600    465.25979   -5874.7487    48.051499   -1038.2779   -3016.4903   -3031.6872 
   69700    477.65805   -5874.5867    49.331977   -546.64826   -2138.1162   -2190.0672 
   69800    476.89037   -5874.7575    49.252692   -270.55707   -2049.3932    -1385.913 
   69900    458.49637    -5874.741    47.352981   -169.62196   -2104.3057   -1608.6121 
   70000     447.1076   -5874.6331    46.176761    38.552587   -1949.1332   -574.53425 
   70100    481.75198   -5874.5679    49.754793    792.84245   -848.72169    72.304926 
   70200    475.61495   -5874.3371    49.120968    1045.6859   -21.234068    456.03898 
   70300    491.41782   -5874.2829     50.75307    1519.5466   -68.877223    1189.7828 
   70400    486.65554   -5874.1967    50.261227    1768.3461    208.60384    1797.6845 
   70500    444.35188   -5874.1005    45.892154    1553.8338    588.70016    1715.6368 
   70600     471.3241   -5874.0157    48.677814    2160.8926    1400.8946     2057.957 
   70700    479.87064   -5873.9659    49.560491    2512.8576     1107.059     3911.484 
   70800    456.26455   -5873.9286    47.122481    2435.4079    1405.5561    2875.4835 
   70900    474.79936   -5873.9286    49.036735    2858.0146     2621.126    3483.7006 
   71000    463.77437    -5873.805    47.898086    2954.1157    2410.0935    3994.1822 
   71100    460.50866   -5873.6824    47.560807    3120.0541    2721.8241    4330.4038 
   71200    464.04976    -5873.683    47.926528    3308.6251    3125.0206    4012.5286 
   71300    470.77006   -5873.4857    48.620593    3572.2526    3708.8412    4074.6368 
   71400    461.07307   -5873.6478      47.6191    3497.6878    2930.0788     4728.315 
   71500    462.07261   -5873.6516    47.722331    3581.3143    2637.5697     5129.596 
   71600    468.78934   -5873.6274    48.416026    3736.0738    2790.6544    5469.8521 
   71700     475.6806   -5873.6987    49.127748    3840.3373     3106.822    5759.8763 
   71800    486.91348   -5873.6382    50.287868    4001.5214    3788.1363     5315.988 
   71900    473.20986   -5873.6704    48.872573    3789.9292    3258.3616    5357.9348 
   72000    475.47726   -5873.8841    49.106747    3737.7091    3117.9817     5271.715 
   72100    500.48652   -5874.1356    51.689675    3911.2808    2963.3199    5359.0158 
   72200    459.67109   -5874.1408    47.474304    3359.9504     2732.103    4777.6702 
   72300    485.19793   -5874.4486    50.110688    3518.1808    2700.3752    4950.8766 
   72400    461.35642   -5874.2518    47.648363    3167.8902    2239.8695    4508.6661 
   72500    468.22918   -5874.4431    48.358174    3091.4215    1640.7094    4579.0538 
   72600    479.21822   -5874.4166    49.493109    3048.1962    1854.3794    4751.0659 
   72700    468.29787   -5874.3331    48.365268    2737.8313    851.48171    4296.1663 
   72800    477.38092   -5874.3958    49.303355     2644.628    309.12391    4536.9647 
   72900    464.96881   -5874.3052    48.021447    2327.0037    -32.55234    4221.9967 
   73000    463.43588   -5874.4918    47.863127    2056.0535   -793.40497    4365.5311 
   73100    473.43992   -5874.3888    48.896334    1987.6478   -785.87982    3737.9467 
   73200    496.83684   -5874.4053     51.31274    1991.6163   -715.99383    3784.7036 
   73300    491.84114   -5874.1686     50.79679    1726.2425   -1095.8149    3314.4322 
   73400    461.25404   -5874.3126     47.63779    1048.3283   -1876.8734    2353.2677 
   73500    483.13342   -5874.2172    49.897467    1052.8078   -1833.1654    2143.1164 
   73600    454.11515   -5874.0901    46.900493    476.22152   -2580.1471    1655.1365 
   73700    481.28829   -5874.0401    49.706904    570.10725   -2430.9124    867.92327 
   73800    468.23465      -5874.2    48.358739    99.759597   -2953.2611    827.77604 
   73900     488.9717   -5874.1956    50.500438     90.21814   -2673.6967   -267.73372 
   74000    458.37327   -5873.8747    47.340266    -489.9905   -3997.2746   -111.87421 
   74100    488.58193   -5873.8092    50.460183    -450.4186   -3727.0766   -622.48188 
   74200    488.60114   -5873.9061    50.462167   -773.76892   -3679.0052   -1072.0724 
   74300    464.94625   -5873.8818    48.019117   -1345.7504   -5195.8467   -1391.2675 
   74400    461.72611   -5873.8154    47.686544   -1652.8564   -6206.2513   -1436.6725 
   74500    481.68439   -5873.6828    49.747813   -1647.0946   -6011.7954   -2065.7041 
   74600    477.87432   -5873.6332    49.354313   -1924.2267   -5794.7111   -2468.8579 
   74700    484.34252   -5873.5974    50.022342   -2078.3627   -6249.8875   -3027.0209 
   74800    490.04209   -5873.5602    50.610987   -2217.1217   -6561.2139    -2963.234 
   74900    458.50718   -5873.1142    47.354097   -2662.8957   -6577.9614   -3808.4459 
   75000    470.08779   -5873.1217    48.550129   -2680.6086   -7078.0871   -3560.9685 
   75100    482.06946   -5873.1291    49.787583   -2712.4011   -6987.2304   -4066.2778 
   75200    457.75791   -5873.2248    47.276713   -3156.3914   -7247.7179   -4507.3261 
   75300    478.65217   -5873.4273    49.434648   -3040.6712   -6657.5377   -5333.8905 
   75400    461.72712   -5873.3211    47.686649   -3303.5235   -6995.3594   -5184.2061 
   75500    434.42037   -5873.3846    44.866439   -3695.8166   -7308.8516   -6148.8777 
   75600     468.6203   -5873.3065    48.398569   -3352.9511   -7234.8549   -5475.7978 
   75700    461.57519   -5873.3619    47.670958   -3484.4717    -6917.592   -6511.7328 
   75800    465.37895   -5873.3782    48.063805   -3470.6863   -7155.0166   -6059.8026 
   75900     457.2917   -5873.2147    47.228564   -3535.5654   -7384.3722   -5989.3935 
   76000    499.52315   -5873.0908    51.590179   -2987.5307    -6268.128   -5630.3738 
   76100    477.28811   -5873.0259     49.29377   -3170.3459   -5977.5519   -6310.5623 
   76200    453.73734   -5872.9066    46.861473   -3308.6429   -5749.5927   -6707.8218 
   76300    474.58518   -5872.8633    49.014614   -2958.3034   -4840.1811   -6830.4546 
   76400    485.98483   -5873.0388    50.191957   -2766.0189   -5197.5329   -6001.4012 
   76500    470.06666   -5873.1384    48.547947   -2857.4745   -4590.3064   -6722.2877 
   76600    466.01969   -5873.2019     48.12998    -2801.799   -4831.5976   -6396.7287 
   76700    481.96564   -5873.3287     49.77686    -2538.256   -4100.8977   -6582.2114 
   76800    455.78924   -5873.1576    47.073391   -2696.7048   -4386.0159   -6670.7054 
   76900    479.60074   -5873.1554    49.532615   -2230.7441   -3902.9328   -5927.9596 
   77000    463.63155   -5873.1571    47.883336   -2194.7671   -3763.5403    -5694.524 
   77100    485.62213   -5873.2915    50.154498   -1752.9624    -3015.685   -5561.0911 
   77200    484.07235   -5873.5366    49.994438   -1658.0568   -2646.4337   -5455.8069 
   77300    464.20208   -5873.7085     47.94226   -1733.9895   -2550.1208   -5494.2534 
   77400     464.5308   -5873.6243    47.976209   -1471.8182   -2427.9666   -4950.0761 
   77500    465.98252   -5873.2748    48.126142   -1141.9687   -1660.9942   -4818.2991 
   77600    463.49783   -5873.1739    47.869525   -890.78429   -1238.7107   -4550.7041 
   77700    478.55592     -5873.13    49.424708   -441.09242   -645.77995   -3530.1303 
   77800    488.28626   -5873.1085    50.429646   -26.110741   -9.2247238   -2755.5181 
   77900    450.13731   -5873.1538    46.489667   -273.70242     17.72888   -3308.5427 
   78000    476.64712    -5873.285    49.227569    239.90289    219.75875   -2539.2875 
   78100    470.40498   -5873.0844    48.582888    460.88101    578.01885   -2148.1861 
   78200    457.90137   -5873.2449    47.291529    523.15896    1247.1384   -2167.0624 
   78300    463.27088   -5873.3735    47.846086    792.74381    1456.8271   -1523.6287 
   78400     473.6359    -5873.583    48.916574    1114.9946     1640.887   -1284.2158 
   78500    480.92694   -5873.4742    49.669584     1467.127    2862.8092   -1470.6313 
   78600    451.68145   -5873.3593    46.649144    1378.7468    2350.4182   -700.79118 
   78700    477.97969   -5873.2889    49.365195    1904.9285    2980.1937   -282.45203 
   78800    479.85484   -5873.2519    49.558859    2099.0371     3483.495   -166.57439 
   78900    473.59843   -5873.1371    48.912704    2242.8121    3640.1693    68.611452 
   79000     464.5471   -5872.8658    47.977893    2383.3223    3835.8712    396.18595 
   79100    463.38224   -5872.7587    47.857588    2537.7433    4168.0741    400.36134 
   79200    480.17266   -5872.9107    49.591683    2822.1215    4965.7582    503.93555 
   79300    467.02657   -5873.2546     48.23397    2709.2555    4754.7473    576.52727 
   79400    476.87492   -5873.3017    49.251096    2942.3746    5565.1802    701.36943 
   79500    460.29869   -5873.1117    47.539122    2865.1256    4969.4445     931.1908 
   79600     487.7348   -5873.3849    50.372692    3178.7456    5198.6138    1249.4798 
   79700    464.44144   -5873.7146    47.966981    2843.9895    4384.6159    1518.2611 
   79800    467.09594   -5873.7652    48.241135    2886.1622    5020.7841    913.27074 
   79900    477.68071    -5873.801    49.334318    2991.8575    4344.1092     2115.196 
   80000    475.69624   -5873.7667    49.129364    2975.1569     4374.937    2236.2428 
   80100    476.42115   -5873.8558    49.204231     2910.384    4301.6934    1117.4468 
   80200    440.28289   -5873.6868    45.471913    2435.6918    3631.3305    1207.5497 
   80300    459.05251   -5873.6608    47.410419    2598.8554    3792.4582    1704.5586 
   80400    481.21261   -5873.7102    49.699088     2817.297    3874.4265    1621.8457 
   80500    482.82571    -5873.473    49.865687    2779.1737    3865.8885    1566.4474 
   80600    478.75537   -5873.5854    49.445307    2569.4103    2840.6358    1663.6116 
   80700    466.10974   -5873.4821     48.13928    2294.9219     2512.386    1337.7821 
   80800    483.43146   -5873.3318    49.928248    2404.5795    2477.8811    1538.4722 
   80900    499.73857   -5873.6621    51.612428    2346.0069     2441.974    1502.7293 
   81000    463.09181    -5873.702    47.827593    1714.5558    2199.7278    78.500496 
   81100    466.75508   -5873.6577     48.20593    1579.7239    1332.2527    602.06512 
   81200    480.04947   -5873.6196     49.57896    1555.9574    1396.1359    218.80272 
   81300    446.11517   -5873.5013    46.074264    963.72869    489.00055    18.177587 
   81400    476.03218   -5873.3766    49.164059    1134.9553    203.21007    -91.75264 
   81500     490.8926   -5873.2884    50.698826    1073.5361    463.13358   -27.105678 
   81600    486.71829   -5873.2651    50.267708    796.23381    51.390272   -560.19432 
   81700    440.69451   -5873.1051    45.514425    45.411138   -789.93874   -1380.2513 
   81800    457.09564   -5873.1433    47.208315    37.496579   -2128.5258   -794.65221 
   81900    493.52883   -5873.2973    50.971093    208.30081    -2011.884    -452.0506 
   82000    456.41543   -5873.3495    47.138063   -464.15287   -1979.0158   -1798.4085 
   82100    457.58157     -5873.27    47.258501   -663.42347   -2656.8995   -2077.3803 
   82200    461.00519   -5873.0414    47.612088   -818.08174   -2122.9186   -2690.4521 
   82300    461.02608   -5872.9374    47.614246   -1003.1246   -2251.0544   -3249.5713 
   82400    462.35809   -5873.1318    47.751815   -1250.8405   -2955.8777   -3646.9014 
   82500    480.97911   -5873.1901    49.674973   -1230.4015   -3438.9786   -3367.2571 
   82600    455.22941   -5873.2595    47.015573   -1770.8584   -3507.9765   -4490.8628 
   82700    461.72306   -5873.1461    47.686229   -1875.1706   -4128.9032   -3694.9043 
   82800    472.98823   -5873.0718    48.849683    -1897.735   -4295.5568   -4081.7132 
   82900     465.9785   -5872.6486    48.125727   -2012.2111   -4454.5652   -4260.9572 
   83000    463.65184   -5872.5874    47.885431   -2186.6271   -4796.7437   -4458.7497 
   83100    484.16432   -5872.4517    50.003937   -2033.1851    -4192.914   -5027.7756 
   83200    482.14416   -5872.0701    49.795298   -2113.7321   -3373.9366    -5872.281 
   83300    475.69163   -5872.1637    49.128888   -2322.5333   -3991.8138   -5428.3202 
   83400    469.85628   -5872.2017    48.526219    -2512.719   -4215.0976   -5976.2343 
   83500    461.70907   -5872.2632    47.684784   -2677.1237   -4825.4596   -5855.5685 
   83600    461.40891   -5872.0101    47.653784   -2671.3557   -4354.0558   -6550.6908 
   83700    472.69136   -5871.8737    48.819022   -2564.8298   -4692.1098   -5724.0952 
   83800    477.34386   -5871.6147    49.299527   -2491.3883   -4165.1535   -6218.4383 
   83900    467.21911   -5871.5618    48.253856   -2629.0518    -4613.061    -5798.936 
   84000    446.72793   -5871.4243    46.137549    -2826.208   -4704.8244   -5967.4438 
   84100    462.82857   -5871.4727    47.800406   -2636.6773   -4621.7826   -5809.1937 
   84200    468.50422   -5871.5821     48.38658   -2561.8709   -4404.5294   -5828.1144 
   84300    481.97686   -5871.5719    49.778019   -2350.5075   -4482.9897   -5632.0125 
   84400    453.90939   -5871.7314    46.879242   -2680.5277   -4577.9639   -6221.6811 
   84500    461.25807    -5871.793    47.638205   -2549.9846   -4151.9852   -6040.0493 
   84600    441.11535   -5871.9027    45.557888   -2696.9495   -4927.7201   -5956.2663 
   84700    483.87733   -5871.5709    49.974297   -1993.3107   -3799.3104   -5252.1818 
   84800    475.70931   -5871.6582    49.130714   -1999.3094   -3256.3145   -5068.6767 
   84900    463.90073   -5871.6104    47.911137   -1951.4568   -3511.6879   -5052.9861 
[...]
 2899100    494.64179   -5866.4017    51.086038    362.77835    569.21595   -586.21013 
 2899200    455.73504   -5866.4801    47.067793   -64.566402    346.39977   -1232.9623 
 2899300    474.20921   -5866.7278    48.975784    172.80145    159.85032   -27.311402 
 2899400    475.31584   -5866.6975    49.090076    260.10743    879.33245   -483.26905 
 2899500    488.13348    -5866.492    50.413868    481.35269    865.61697   -281.76825 
 2899600    456.17459   -5866.4877     47.11319    155.74885    777.13843   -689.46504 
 2899700    456.00988   -5866.3547    47.096178    197.68948     761.7212   -774.63541 
 2899800     445.5546    -5866.445    46.016369     97.00893    456.41765   -463.55011 
 2899900    472.58575   -5866.2295    48.808116    512.35654    783.51912   -63.312589 
 2900000     466.6189   -5866.1578    48.191866    494.40949    921.56415   -442.22036 
 2900100    496.30495   -5866.1148    51.257808    837.74853     1538.158    82.690664 
 2900200    487.02242   -5866.1285    50.299118    738.56371    1921.8846   -272.20571 
 2900300    479.97356   -5866.0909     49.57112    701.99534    1894.2427   -244.52505 
 2900400    475.29499   -5866.2037    49.087922    644.34567    1435.1023    315.18695 
 2900500    452.06953    -5865.932    46.689224    433.40497    1385.4896   -431.72455 
 2900600    468.18542   -5865.8641    48.353654    642.68333    1742.1203   -193.01978 
 2900700    470.79014   -5865.7796    48.622667     685.6804    1778.7713     -482.769 
 2900800    478.59687   -5865.9764    49.428937    718.88902    2134.3606    -552.8396 
 2900900    456.70141   -5865.9409    47.167599    459.92501    2096.9814   -1029.2119 
 2901000    474.50893   -5865.7017    49.006739    716.50418    2768.3302   -1123.2246 
 2901100    428.24426   -5865.6886    44.228578    177.28347    1992.7458   -1445.1827 
 2901200    487.18792   -5865.4707    50.316211    925.23472     3014.907   -554.91643 
 2901300    490.41664   -5865.4372     50.64967    971.60426    2735.9431   -686.43388 
 2901400     499.1963   -5865.4572    51.556423    1045.5487    3072.4856   -304.78697 
 2901500    467.30358   -5865.5717     48.26258    625.55042    2584.4683   -1074.7434 
 2901600    457.58194   -5865.6309    47.258539    475.94698     2346.792   -1211.1654 
 2901700    482.52667   -5865.5851    49.834803    767.13452    3017.2148   -1219.3131 
 2901800    461.60509   -5865.5887    47.674046    496.21907    2984.6398   -1668.8666 
 2901900    474.95373   -5865.8121    49.052677    546.54889    1972.3187   -1207.0819 
 2902000    475.13569   -5865.7403     49.07147    504.27482    2361.1987     -1669.62 
 2902100    462.16309    -5865.669    47.731675    321.46744    1987.6338   -1793.0185 
 2902200    482.32251   -5865.6326    49.813716    550.25745    2596.5697   -1314.1855 
 2902300    465.25999   -5865.6708     48.05152    324.27256    2168.2921   -1406.0319 
 2902400    477.45103    -5865.688    49.310596    403.78981    1802.3056   -1224.3199 
 2902500    475.51458   -5865.5142    49.110602    348.13725    1510.3649   -1200.2219 
 2902600    476.96704   -5865.3151    49.260611    378.71641    2118.4227   -1734.5064 
 2902700    449.42082   -5865.0962    46.415668   -6.5657164    1554.1576   -1960.6513 
 2902800    487.27211   -5864.7429    50.324906    471.01926    2173.7191   -1625.8082 
 2902900    466.42408   -5864.7704    48.171745     134.9219    1734.3517    -1777.281 
 2903000    469.87027   -5864.7954    48.527664     77.38327    1407.3069   -1623.5135 
 2903100    459.56991   -5864.6673    47.463855   -68.145923    1514.9438   -2029.7307 
 2903200    455.86057   -5864.5361    47.080758   -140.42984    1622.2441   -2400.0797 
 2903300    464.79478   -5864.7671    48.003474   -181.71422    1655.4926   -2072.0704 
 2903400    461.95587   -5865.0344    47.710274    -341.1081    867.26551   -2071.0138 
 2903500    459.53197   -5864.9401    47.459936    -444.1313     585.5472   -2099.3748 
 2903600    456.51538   -5864.8464    47.148386   -544.00735    26.740668   -1927.0091 
 2903700    469.58363   -5864.9082     48.49806   -423.63913   -38.089988   -2243.6829 
 2903800    487.16831   -5864.9761    50.314186   -250.22159    300.70111   -1815.4678 
 2903900    480.46828   -5865.0293    49.622214   -374.73731    674.06932   -2722.3316 
 2904000     482.2198   -5865.0087    49.803109   -421.81057    948.41144   -2922.2498 
 2904100    476.58764   -5864.9196    49.221426   -520.80554    846.72665   -3030.5079 
 2904200    472.26411   -5865.0972    48.774897   -659.50495     681.7537   -2974.7635 
 2904300    449.37817   -5865.1761    46.411263    -1008.785    420.68425   -3796.3961 
 2904400    462.08827   -5865.3328    47.723948    -934.6181    758.83307   -4210.7518 
 2904500    467.34295   -5865.3307    48.266646   -937.50687    627.76318   -4117.4604 
 2904600    472.97751    -5865.419    48.848576   -921.73296    689.06254   -4019.1418 
 2904700    455.21144   -5865.5492    47.013717   -1194.5286    986.29461   -4626.1672 
 2904800    466.62909   -5865.3135    48.192918   -1050.8155    997.71205   -4711.6655 
 2904900    469.20543   -5865.4123       48.459   -1077.5432    1034.1564    -4772.772 
 2905000    489.94502   -5865.5216    50.600961   -836.75683    778.66761   -4406.6623 
 2905100    463.70443   -5865.6847    47.890863   -1186.0684    977.32746   -4886.0772 
 2905200    463.00533   -5865.8776    47.818661   -1253.3733    836.36362   -4793.6185 
 2905300    464.21323   -5865.8747    47.943411   -1237.1896    1377.7114   -5312.5073 
 2905400    460.62432   -5865.9969    47.572752   -1327.7627    743.22733   -4907.4055 
 2905500    474.65877   -5865.8988    49.022215    -1099.558    1304.8232   -4743.8051 
 2905600    468.17989   -5865.8625    48.353084   -1127.7229     1026.922   -4658.1538 
 2905700    458.30788   -5865.9141    47.333513   -1213.2225    692.53437   -4657.9955 
 2905800    470.43502   -5865.8743    48.585991   -1011.9381    1211.3694    -4899.431 
 2905900    497.00691    -5865.708    51.330305   -617.42139    1037.9609   -3579.0187 
 2906000    471.33628   -5865.3471    48.679071   -761.91728    679.90131   -3650.3561 
 2906100    471.04646   -5865.6234     48.64914   -780.23385    776.63297   -3232.9244 
 2906200    470.63758   -5865.5407    48.606911   -703.90126    521.59286   -2773.6025 
 2906300    481.88054   -5865.3596    49.768071    -427.8688    163.02584   -1802.9258 
 2906400    458.33615   -5865.3359    47.336433   -606.03063    608.78243   -2373.1939 
 2906500    462.77986   -5865.4126    47.795374   -497.19488    335.35323   -2526.5666 
 2906600    453.46208   -5865.2434    46.833045   -444.60134    540.85359   -2114.7426 
 2906700    477.14435   -5865.4235    49.278922   -102.89966    1885.0535   -2642.3437 
 2906800    451.71925   -5865.3524    46.653048   -308.06634    1549.8988   -2958.2045 
 2906900    452.47771   -5865.3746     46.73138   -195.65828    1574.9929   -2458.5301 
 2907000    483.72579   -5865.3089    49.958646    294.83867    2172.6098   -2145.6568 
 2907100    482.18868   -5865.3912    49.799895    379.42126    2028.2608   -1873.0587 
 2907200     476.6277   -5865.6003    49.225564    386.80974    2364.1554   -1710.4872 
 2907300    465.49688   -5865.7248    48.075985    303.24632    1968.1109   -1579.2264 
 2907400    476.41172   -5865.7033    49.203257    549.08861    2723.9004   -1551.5861 
 2907500    468.64332   -5865.8595    48.400945    547.05709    2133.5005   -1174.3641 
 2907600    467.10712   -5865.8543    48.242288    624.76966    2572.0411    -880.6225 
 2907700    481.52394   -5865.9698    49.731242    875.01002    2204.7867   -19.260731 
 2907800    481.25782   -5866.2151    49.703757    856.33263     2410.987   -458.35947 
 2907900    477.44846   -5866.4694    49.310331    804.19888    2502.0015   -593.79351 
 2908000    492.89185   -5866.5234    50.905306    1059.5824    2732.3367   -419.82947 
 2908100    477.60681    -5866.552    49.326685    952.01272    2864.1437   -591.86179 
 2908200    467.30065   -5866.4708    48.262277    918.81223    3029.0578   -940.40903 
 2908300    477.94137   -5866.4917    49.361238    1103.3802    3566.0206   -752.86101 
 2908400    447.56552   -5866.5479    46.224055    774.73267     2781.857   -1101.0433 
 2908500    489.97906   -5866.4996    50.604476    1358.6363    3337.6079    -485.9007 
 2908600    449.82253   -5866.5883    46.457156    886.20676     3603.016   -1336.8658 
 2908700     488.3932    -5866.486    50.440691    1379.8746    4331.9438   -1063.0903 
 2908800    462.99078   -5866.4249    47.817158    1108.5002    3504.4714   -710.07373 
 2908900    471.77306   -5866.4417    48.724182    1237.0899    4288.5495   -855.32148 
 2909000    480.30747   -5866.5641    49.605606    1318.5543    3706.5255   -18.631006 
 2909100    470.59686    -5866.682    48.602705    1204.0166    3080.1868   -391.18379 
 2909200     485.4636   -5866.7093    50.138125    1359.9619    3652.0885   -156.38405 
 2909300     472.5449   -5866.8633    48.803897    1140.3816    2729.6164     22.08508 
 2909400    464.44759   -5866.8014    47.967615     1037.823    3546.1803    -509.2413 
 2909500    467.57422   -5867.0357    48.290531    984.26974    3243.8163   -893.67929 
 2909600    476.68626   -5867.1914    49.231612    1014.1069    2644.8717   -136.13819 
 2909700    477.29644   -5867.2191     49.29463     984.9629    2616.5781   -71.676172 
 2909800    494.79097   -5867.1259    51.101445    1146.6117    2138.7843    380.32331 
 2909900    460.98321    -5867.117    47.609819    667.73126    973.01747    177.22821 
 2910000    438.39402   -5867.0779    45.276833    312.92685    661.62033   -350.69769 
 2910100    447.39087   -5866.8133    46.206017    419.99929    1530.0175   -363.93043 
 2910200    469.52972   -5866.7903    48.492492    644.10057    1272.2931   -241.01528 
 2910300     459.2488   -5866.7534    47.430691    456.29203    1455.1329    -793.3029 
 2910400    450.53302   -5866.8586    46.530535    265.56253    1166.0624   -324.40413 
 2910500    468.59892   -5866.8551     48.39636    367.88375    1650.1504   -1231.2322 
 2910600    468.46765   -5866.8281    48.382803    252.63395    1508.8154   -1327.6776 
 2910700    470.34063   -5866.8082    48.576242    147.17702    1313.9578    -1466.222 
 2910800    466.93881   -5866.7079    48.224907    61.797643    925.00268    -1467.612 
 2910900    465.55029   -5866.7857    48.081501   -49.280485    984.15698   -1505.9439 
 2911000    479.41361   -5866.9002    49.513289   -26.551623    607.07176   -1802.6087 
 2911100    466.75957   -5866.9583    48.206395   -284.75984    54.728723   -1184.8418 
 2911200    453.45183   -5867.0558    46.831986   -568.43813   -580.17404   -1652.1908 
 2911300     459.2043   -5867.0678    47.426095   -582.47299    -608.6932   -1774.2058 
 2911400    460.23347    -5867.368    47.532386   -699.98831   -736.99272   -1551.1413 
 2911500    453.26966   -5867.4948    46.813172   -842.10889   -1270.7801   -1348.4844 
 2911600    485.15186   -5867.4884     50.10593   -540.42858   -1285.8972   -1340.3187 
 2911700    444.10093   -5867.4441    45.866236   -1115.2953   -1313.0363   -1937.2796 
 2911800     482.8262   -5867.1708    49.865738   -616.71169   -1060.5709   -1680.0584 
 2911900    454.36106   -5867.3689     46.92589   -1038.5642   -1066.5998   -2023.4043 
 2912000    462.65072   -5867.2045    47.782037   -1000.5792   -1677.5791   -1755.2865 
 2912100    469.95246   -5867.2807    48.536152   -994.17434   -1704.9444   -1541.3069 
 2912200    474.67875   -5867.1991    49.024279   -947.85684   -2077.3656   -1167.0241 
 2912300    460.48825   -5867.2528      47.5587   -1164.4642    -3205.071   -403.45424 
 2912400    450.82969    -5867.082    46.561175   -1234.2611   -3084.3196   -914.18795 
 2912500    469.27101   -5867.0384    48.465773   -979.21642   -2756.6755   -554.41821 
 2912600    484.20956    -5867.077    50.008609   -804.26389   -2649.4723   -173.21496 
 2912700    470.86422   -5866.8476    48.630318     -921.362   -3162.1055   -145.44631 
 2912800    460.22758    -5866.719    47.531777   -1018.0325   -2991.3565     31.93016 
 2912900    472.70082   -5866.6612        48.82   -841.27335   -3400.8546    272.73166 
 2913000    476.62485    -5866.708    49.225269   -826.56976   -3874.4296    736.34203 
 2913100    477.66412   -5866.8461    49.332604   -814.76473    -3936.644    754.40865 
 2913200    479.39117   -5866.9711    49.510971   -759.13443   -3623.7897    880.65195 
 2913300    460.02856   -5866.9692    47.511223   -925.06769   -3905.1745    717.07056 
 2913400    474.10527   -5867.1198     48.96505    -818.2932   -3922.2295    696.88553 
 2913500    472.69363   -5867.0509    48.819258   -809.58167   -3515.4086    679.05749 
 2913600    458.14596   -5866.9263     47.31679   -941.99207   -4020.2321     684.6785 
 2913700    459.16954   -5866.8042    47.422504   -861.17991    -3578.645    936.74765 
 2913800    451.92792   -5866.5797    46.674599   -821.43734   -3262.0549    447.68994 
 2913900    458.11511    -5866.316    47.313604   -656.98329   -3079.8681    843.01242 
 2914000    456.87585   -5866.4301    47.185615   -655.17032   -3015.5312    598.37963 
 2914100    488.35208   -5866.3575    50.436444   -234.32324   -3106.2126    1725.1625 
 2914200    465.63756   -5866.3221    48.090515    -439.4987   -3150.7842     1435.262 
 2914300    479.38057   -5866.1524    49.509877   -196.38839   -2703.8492    1914.4633 
 2914400    471.42168   -5866.4031    48.687891   -261.04713   -2716.7803    1355.2799 
 2914500    457.52039   -5866.3707    47.252183   -392.69152   -2702.1061    1169.8882 
 2914600     486.5787   -5866.3779    50.253292   -35.032516   -2912.3116    2304.5402 
 2914700    463.68887   -5866.4051    47.889256   -242.01454   -3029.9571    1755.8382 
 2914800    446.59118   -5866.2012    46.123427   -341.61846   -2703.1056    1621.7801 
 2914900    488.12383   -5866.1073     50.41287    264.98914     -1784.32     1780.471 
 2915000    482.97792   -5866.0639    49.881407    250.68974   -2039.7059    1904.5149 
 2915100    464.94197   -5866.1214    48.018675    60.601051   -1964.4735    1989.0102 
 2915200    471.65818    -5865.969    48.712317      249.392   -1615.0348    2433.8991 
 2915300     451.4202   -5865.9274    46.622161    77.081957   -1618.8713    1784.8588 
 2915400    459.24678   -5866.0185    47.430482     225.6488   -1303.6733    1637.5088 
 2915500    468.57386   -5866.0069    48.393772    423.01872   -1142.9694    2344.7282 
 2915600    465.37429   -5865.8456    48.063324    472.32145   -960.62544     1898.244 
 2915700    459.33048   -5865.9208    47.439126    454.26363   -611.72293    1968.5807 
 2915800    487.01022   -5866.0295    50.297858    802.71175   -689.85925    1868.1335 
 2915900    465.75397   -5866.2246    48.102537    569.57331   -65.624484    1594.8499 
 2916000     490.7653    -5866.545    50.685679    894.01056    178.22199    2022.4064 
 2916100    447.49675   -5866.8932    46.216952     361.5117   -740.71007    1873.6899 
 2916200    463.70713   -5866.9883    47.891142    605.96666   -350.29778    1465.5681 
 2916300    454.84862   -5866.8457    46.976245    586.80755   -300.01373    1723.4501 
 2916400    454.71559   -5866.8301    46.962506    635.04926    44.868818    1478.7155 
 2916500    450.32934   -5866.7808    46.509499    663.66246    401.13873    1109.7042 
 2916600    462.49493   -5866.7579    47.765947    810.06175    -239.3937    2253.4011 
 2916700    470.51887   -5866.7366    48.594651    972.83523   -335.56641    2549.8986 
 2916800    464.73963   -5866.8034    47.997778    894.90474   -487.41123    2546.6148 
 2916900    459.73173   -5866.8768    47.480567    790.90922   -762.93666    2941.1429 
 2917000    473.57863   -5867.0382    48.910659    924.78482   -638.39228    2697.4401 
 2917100    448.28944   -5867.2407    46.298821    591.48181   -752.75165    2443.0706 
 2917200    483.66529    -5867.384    49.952398    967.63021   -156.66988    2086.1499 
 2917300    479.37672   -5867.5088    49.509479    855.28351   -457.43837    2273.1704 
 2917400    469.50863   -5867.5887    48.490314    667.29715   -382.46684    2058.7848 
 2917500     471.2649   -5867.7448      48.6717    638.22148   -161.06652    1692.5898 
 2917600    464.84259   -5867.7653    48.008411    514.95353   -290.40455    1601.4053 
 2917700    455.97996   -5867.8138    47.093089    370.16999   -400.40503     1441.264 
 2917800     486.4172   -5867.5398    50.236612    769.68161    197.76051    1355.0352 
 2917900    471.11512   -5867.5886    48.656231    538.63148   -627.19728    1676.6575 
 2918000    452.75601   -5867.6833    46.760123    288.09527   -631.24621    1379.6721 
 2918100    454.21754   -5867.6516    46.911067    245.17392   -754.73103    825.52014 
 2918200    476.80152   -5867.6919    49.243515    431.66714   -616.90803    1465.5818 
 2918300    481.72947   -5867.6797    49.752469    409.82885   -827.79955    1386.7535 
 2918400    468.27532   -5867.8133    48.362939    141.30498   -853.66703    967.44761 
 2918500    452.65707   -5867.9285    46.749904   -138.03506   -858.33194   -216.02949 
 2918600    474.73625   -5867.7321    49.030217    122.40187   -71.707056    212.36839 
 2918700    453.01434   -5867.7694    46.786803   -205.37511   -1263.5394    234.02587 
 2918800    474.73704   -5867.9677    49.030298   -81.132408    -875.5783    122.82614 
 2918900    453.44912   -5867.9206    46.831707   -391.06561   -1864.0149    533.33736 
 2919000    487.68527   -5867.8324    50.367577   -7.8984622   -1419.0793    979.73256 
 2919100      477.506   -5867.6461    49.316274   -142.63039   -1512.4737    624.47498 
 2919200    486.27851   -5867.3981    50.222288   -16.588447   -1171.4389    920.93516 
 2919300    475.88337   -5867.4014     49.14869   -154.59374   -1419.8982   -122.02682 
 2919400    479.91962   -5867.7221    49.565549   -204.82451   -1486.5906    175.88735 
 2919500     476.0619   -5867.7147    49.167128   -291.05371   -1221.6061    14.944227 
 2919600    463.80094   -5867.6369    47.900831   -468.91694   -1756.3943   -153.63415 
 2919700    488.60974   -5867.4842    50.463055   -175.81316   -574.34956   -226.76093 
 2919800    480.72083   -5867.2923    49.648297   -262.08382   -807.20528     -810.898 
 2919900    462.80442   -5867.3596    47.797911   -547.13899   -955.79747   -963.32679 
 2920000    452.76886   -5867.3004     46.76145   -692.72032   -524.38556   -1208.7255 
 2920100    459.29522    -5867.279    47.435484   -630.22601   -1055.5274    -1332.868 
 2920200    456.46241   -5867.2642    47.142916   -672.35266   -686.72138   -1717.0936 
 2920300    468.11494   -5867.2321    48.346375   -552.65151   -522.57008   -1577.8589 
 2920400    459.71976   -5867.3093    47.479331   -678.47691   -708.98545   -1224.0634 
 2920500    459.58067    -5867.272    47.464965   -662.95185     62.47869   -2332.8566 
 2920600    482.51697   -5867.4536    49.833801   -485.60206   -209.57905   -2206.5726 
 2920700    467.33747   -5867.6341    48.266079    -719.2697   -581.07441   -1550.9638 
 2920800    460.84602    -5867.639    47.595649    -787.7878   -1079.7669   -1491.4433 
 2920900    477.75265   -5867.6176    49.341747   -585.00864   -703.27661   -1482.1936 
 2921000    464.92831   -5867.9167    48.017264    -795.1261   -1332.1822   -1544.4898 
 2921100    469.30081   -5867.7895    48.468851    -712.5284   -865.06531   -1798.1904 
 2921200    470.95306    -5867.852    48.639493   -713.93344   -730.36264   -1925.1125 
 2921300    467.31059   -5867.9448    48.263303   -792.06153   -827.71856   -1942.5107 
 2921400    450.64414   -5868.0192    46.542011   -1017.9835   -1649.1076   -2292.8823 
 2921500    459.50315   -5868.1293    47.456959