800
Atoms. Timestep: 50000
1 25.2113 43.6935 3.8468
1 1.19075 0.642274 3.72565
1 27.753 43.6825 3.60345
1 3.74009 0.640505 3.56412
1 5.02586 -0.0675374 3.60376
1 6.30021 0.663087 3.58933
1 32.8108 43.7416 3.45255
1 8.81037 0.653713 3.44482
1 35.3693 43.7175 3.34996
1 11.3453 0.699867 3.38765
1 37.8628 43.7751 3.44162
1 13.8482 0.708496 3.50944
1 40.4042 43.7596 3.55472
1 16.3796 0.676815 3.64417
1 17.6648 -0.0736218 3.69498
1 18.9315 0.671463 3.80821
1 45.4651 43.7363 3.99293
1 21.4368 0.673439 3.96608
1 22.6829 -0.0493469 3.93047
1 23.948 0.712181 3.92597
1 25.2173 -0.0159443 3.80536
1 26.5083 0.707661 3.79456
1 53.0404 43.7588 3.78201
1 29.0305 0.68322 3.77293
1 30.2787 -0.0400911 3.80365
1 31.5475 0.698006 3.97421
1 58.0831 43.764 4.03083
1 34.0898 0.68639 3.99656
1 60.655 43.7301 3.94656
1 36.6014 0.637278 4.01224
1 63.128 43.7202 4.06637
1 39.1151 0.670583 4.1767
1 40.3649 -0.0658206 4.15711
1 41.6301 0.6616 4.05374
1 42.8752 -0.0771312 3.96311
1 44.1391 0.633846 3.83862
1 45.4495 -0.0821298 3.90175
1 46.7063 0.637768 3.90771
1 73.2348 43.7112 4.03857
1 49.2441 0.620325 4.0136
1 1.18926 2.1009 3.7152
1 2.48431 2.82786 3.76996
1 3.74672 2.10184 3.62314
1 5.02319 2.81767 3.71292
1 6.29212 2.118 3.64704
1 7.57086 2.85585 3.50004
1 8.84245 2.12658 3.4459
1 10.0991 2.87936 3.55503
1 11.3393 2.156 3.46484
1 12.5786 2.86615 3.68692
1 13.8275 2.1572 3.73889
1 15.1094 2.90074 3.88354
1 16.39 2.13973 3.80886
1 17.6398 2.84862 3.85074
1 18.9331 2.14597 3.91375
1 20.179 2.85932 4.04216
1 21.4183 2.15939 -0.0789607
1 22.6704 2.88926 -0.0117129
1 23.9513 2.13378 4.09397
1 25.2138 2.86907 3.92902
1 26.4981 2.1344 3.79853
1 27.7913 2.878 3.81385
1 29.0402 2.16807 3.84884
1 30.2926 2.91496 3.87304
1 31.5647 2.1395 3.97734
1 32.8306 2.86062 3.95504
1 34.0993 2.1366 3.99462
1 35.332 2.8443 4.13235
1 36.5964 2.09404 4.02136
1 37.8854 2.8366 3.98033
1 39.1233 2.12376 -0.0657158
1 40.3761 2.81342 4.05799
1 41.6332 2.13434 3.99793
1 42.9081 2.84697 3.93217
1 44.1453 2.10839 3.86865
1 45.4244 2.83705 3.80428
1 46.7191 2.09289 3.70665
1 48.0022 2.81088 3.89992
1 49.2882 2.0856 3.90514
1 50.5162 2.814 3.90643
1 53.0527 4.29926 3.75393
1 3.75916 4.99856 3.76184
1 5.02626 4.2727 3.86938
1 6.28341 5.02229 3.7962
1 7.5601 4.27876 3.64937
1 8.83141 5.02895 3.68882
1 10.1003 4.36093 3.64548
1 11.3369 5.09865 3.70888
1 12.5688 4.36212 3.72237
1 13.82 5.06813 4.04975
1 15.1259 4.33498 4.00687
1 16.38 5.072 4.06138
1 17.6361 4.335 3.96454
1 18.9025 5.08265 4.16217
1 20.1668 4.34069 4.2095
1 21.4398 5.06965 0.0809762
1 22.6935 4.346 0.0866944
1 23.912 5.06638 0.0846092
1 25.1932 4.33638 3.96952
1 26.5022 5.08758 3.98579
1 27.779 4.35609 3.92228
1 29.04 5.11202 3.94971
1 30.2668 4.36416 3.83097
1 31.5365 5.05029 3.92481
1 32.8095 4.30057 -0.211738
1 34.0462 5.01203 3.95976
1 35.3013 4.29359 4.10907
1 36.5776 5.03235 4.09009
1 37.8633 4.29301 -0.0508203
1 39.1623 5.01197 -0.0895647
1 40.3988 4.25816 4.11522
1 41.6711 5.03222 4.12069
1 42.9088 4.30863 3.99451
1 44.1671 5.05491 3.94298
1 45.4305 4.30538 3.90507
1 46.6971 5.05055 3.87094
1 47.9634 4.30951 3.97282
1 49.2349 4.99893 4.09598
1 50.5016 4.28749 3.92867
1 51.7609 5.02133 3.88944
1 3.74196 6.4474 -0.273154
1 5.04786 7.22302 3.92074
1 6.30795 6.50638 3.8591
1 7.56293 7.2409 3.88064
1 8.82216 6.53236 3.71985
1 10.0431 7.25408 3.79872
1 11.3217 6.54368 3.83571
1 12.5605 7.28392 4.10292
1 13.8048 6.53951 4.221
1 15.0716 7.2743 0.127853
1 16.3539 6.52992 4.1959
1 17.6218 7.24746 -0.00811392
1 18.926 6.54821 0.0239356
1 20.1628 7.26879 0.107502
1 21.4234 6.52429 0.0626001
1 22.6596 7.23829 0.146434
1 23.921 6.4989 0.0575045
1 25.2477 7.23453 0.0575174
1 26.5311 6.4903 4.11126
1 27.8076 7.24862 4.00678
1 29.0244 6.56406 3.88258
1 30.3077 7.26338 3.93169
1 31.5272 6.52579 3.98602
1 32.8068 7.21497 3.93874
1 34.0733 6.48318 3.92806
1 35.3247 7.20501 3.98106
1 36.5866 6.49621 -0.0479119
1 37.8686 7.22518 -0.146362
1 39.1475 6.49719 -0.11502
1 40.418 7.21979 0.129402
1 41.6847 6.49561 4.19045
1 42.9256 7.23484 -0.00379567
1 44.1779 6.52678 -0.109899
1 45.4542 7.22331 -0.0112318
1 46.6866 6.49767 4.13581
1 47.9424 7.23429 4.12102
1 49.2465 6.47574 4.04498
1 50.5114 7.19422 3.97115
1 51.7803 6.43496 3.97317
1 53.0572 7.15714 3.99876
1 55.6019 8.71531 4.10062
1 6.28714 9.45871 4.04707
1 7.55338 8.71426 3.93539
1 8.78271 9.45537 3.91318
1 10.0408 8.7464 3.83423
1 11.272 9.4773 4.03954
1 12.554 8.76559 4.14552
1 13.7858 9.45175 4.02892
1 15.0905 8.71475 -0.0398614
1 16.3404 9.42264 -0.195374
1 17.5921 8.6892 -0.0761592
1 18.8412 9.44895 4.15302
1 20.1352 8.68685 0.0914152
1 21.4108 9.42279 0.045759
1 22.67 8.69132 0.0706751
1 23.9763 9.42395 0.0461301
1 25.2561 8.69177 0.115706
1 26.5129 9.47966 4.24325
1 27.7907 8.74788 4.12511
1 29.0193 9.48071 4.02776
1 30.2994 8.74533 4.01367
1 31.572 9.43649 3.90057
1 32.8274 8.73377 3.84561
1 34.0904 9.43678 3.94806
1 35.3477 8.67399 3.9293
1 36.5842 9.35154 -0.0135705
1 37.8777 8.65295 0.0272284
1 39.1152 9.37336 0.18411
1 40.3921 8.64805 0.158009
1 41.674 9.39112 0.0898491
1 42.9371 8.68487 -0.00499066
1 44.1625 9.42843 0.0416263
1 45.4357 8.67697 0.0554378
1 46.7021 9.41993 0.057462
1 47.9573 8.69975 -0.00654486
1 49.2267 9.4265 0.0170231
1 50.5147 8.69529 -0.0981335
1 51.7941 9.40609 -0.0495569
1 53.0359 8.67956 -0.0501233
1 54.3246 9.424 4.15496
1 6.28294 10.9005 -0.0011543
1 7.54657 11.6327 0.00130617
1 8.7958 10.9067 -0.0804451
1 10.0344 11.6232 4.10523
1 11.2757 10.8993 4.03533
1 12.5669 11.6761 3.9191
1 13.8218 10.8935 3.8669
1 15.0848 11.5822 3.71933
1 16.3515 10.8576 3.83794
1 17.5924 11.5993 3.86164
1 18.8482 10.9035 3.95157
1 20.1299 11.6173 3.92117
1 21.4096 10.8918 4.07033
1 22.6766 11.6285 4.05315
1 23.9658 10.9143 0.0723949
1 25.2309 11.6548 0.0722632
1 26.5123 10.9509 0.077768
1 27.7567 11.6792 4.15384
1 29.0121 10.9184 4.09485
1 30.2914 11.6556 4.07524
1 31.5718 10.9133 3.94344
1 32.8233 11.6021 4.09878
1 34.0895 10.8553 4.11654
1 35.313 11.5531 4.11034
1 36.5818 10.8223 0.0848128
1 37.8532 11.5606 0.209246
1 39.0852 10.8266 0.284474
1 40.348 11.5747 0.264688
1 41.6538 10.8693 0.192427
1 42.9174 11.627 0.0771295
1 44.1823 10.9061 0.101072
1 45.4938 11.617 0.117817
1 46.7011 10.8981 0.191962
1 47.9763 11.6257 0.232821
1 49.2313 10.8828 0.194207
1 50.4789 11.6123 0.0837803
1 51.7829 10.8803 0.0671698
1 53.0355 11.6302 0.186747
1 54.294 10.9156 0.172905
1 55.5549 11.6359 0.135425
1 7.54132 13.0844 0.137662
1 8.77998 13.8189 0.0946352
1 10.0458 13.0665 4.16906
1 11.2784 13.8347 3.98411
1 12.5714 13.1231 3.89624
1 13.8309 13.8518 3.74456
1 15.1021 13.1019 3.72944
1 16.3423 13.8255 3.8273
1 17.5923 13.0813 3.78976
1 18.8707 13.8088 3.7266
1 20.1131 13.0806 3.74354
1 21.3884 13.8118 3.72989
1 22.6547 13.1023 3.9234
1 23.9344 13.8062 4.00654
1 25.2204 13.0848 0.00190643
1 26.4718 13.8038 0.11665
1 27.7323 13.0898 0.0749851
1 29.0025 13.8127 0.106436
1 30.2796 13.0894 -0.000669595
1 31.5448 13.7778 0.0929477
1 32.8165 13.0738 4.15789
1 34.08 13.7734 0.166345
1 35.342 13.0615 0.0306122
1 36.6247 13.7835 0.176925
1 37.8882 13.0397 0.240989
1 39.1378 13.7869 0.347238
1 40.3866 13.0415 0.319813
1 41.695 13.7966 0.283675
1 42.9325 13.1049 0.244066
1 44.2023 13.8404 0.258253
1 45.484 13.0863 0.182267
1 46.7436 13.8359 0.241584
1 48.0099 13.1087 0.182631
1 49.2509 13.8185 0.4125
1 50.4781 13.1009 0.199041
1 51.7335 13.8306 0.212343
1 53.0098 13.081 0.292531
1 54.2758 13.8122 0.308918
1 55.5349 13.0801 0.264358
1 56.8678 13.791 0.268356
1 8.77253 15.2719 0.20124
1 10.0325 16.0226 0.0122959
1 11.2739 15.3291 4.04612
1 12.6013 16.0432 4.01123
1 13.8483 15.3115 3.85002
1 15.0968 16.0279 3.91868
1 16.3492 15.3005 3.8481
1 17.6035 16.0048 3.83892
1 18.8546 15.2583 3.7618
1 20.1143 15.9662 3.80791
1 21.377 15.2376 3.78096
1 22.6705 16.002 3.90499
1 23.9466 15.2695 3.98612
1 25.2227 16.0239 4.0432
1 26.4693 15.2828 0.135716
1 27.7604 16.0158 0.237168
1 29.0129 15.252 0.18036
1 30.2685 15.9902 0.251305
1 31.5496 15.2486 0.319978
1 32.8012 15.9623 0.416403
1 34.0772 15.2349 0.354356
1 35.3653 15.9843 0.297892
1 36.6302 15.2553 0.27619
1 37.8885 15.9802 0.156917
1 39.1636 15.2708 0.333696
1 40.3843 15.9705 0.452171
1 41.6629 15.2591 0.462339
1 42.9111 15.9919 0.503057
1 44.2152 15.2628 0.461415
1 45.4859 15.9991 0.460822
1 46.7421 15.2896 0.515732
1 47.9999 16.0072 0.660767
1 49.2599 15.2999 0.529349
1 50.5115 16.0487 0.350239
1 51.8001 15.2579 0.272283
1 53.0738 15.9916 0.204163
1 54.2992 15.2658 0.206717
1 55.5644 15.9969 0.102749
1 56.8422 15.2709 0.322734
1 58.0957 16.0314 0.269165
1 60.6122 17.4982 0.0928817
1 11.3168 18.2404 0.0526021
1 12.5841 17.4758 4.13967
1 13.8736 18.2003 0.0427639
1 15.086 17.4583 3.98656
1 16.3841 18.1776 4.0888
1 17.6454 17.4596 3.89397
1 18.8664 18.1648 3.99792
1 20.1078 17.4408 3.84576
1 21.3824 18.1822 3.85379
1 22.6549 17.4508 3.89415
1 23.9478 18.1841 3.8638
1 25.2309 17.4786 4.02904
1 26.5007 18.1858 3.97337
1 27.7628 17.4987 0.111115
1 29.0246 18.1991 0.116575
1 30.2908 17.465 0.278529
1 31.5773 18.2 0.302599
1 32.843 17.449 0.436826
1 34.1349 18.1675 0.272494
1 35.3722 17.4505 0.343695
1 36.5954 18.1705 0.259872
1 37.8633 17.4429 0.214012
1 39.1403 18.1435 0.38748
1 40.4181 17.4502 0.464342
1 41.6612 18.1823 0.689221
1 42.9245 17.4501 0.705802
1 44.2366 18.1797 0.826566
1 45.5002 17.4654 0.623503
1 46.7612 18.2329 0.687994
1 48.0162 17.5073 0.662905
1 49.2616 18.2386 0.505603
1 50.5322 17.5043 0.255234
1 51.7817 18.2119 0.190284
1 53.0899 17.4536 0.205918
1 54.3332 18.1853 0.250898
1 55.545 17.4572 0.0183209
1 56.809 18.1839 0.0727751
1 58.0735 17.4879 0.192415
1 59.3612 18.2086 0.182329
1 61.9095 19.701 0.26576
1 12.6121 20.4025 0.199503
1 13.8974 19.6824 0.148389
1 15.1327 20.3781 0.14453
1 16.3859 19.6326 4.33161
1 17.6003 20.3567 4.33864
1 18.8531 19.6483 4.1494
1 20.1403 20.3741 4.13668
1 21.367 19.6636 3.91594
1 22.6785 20.3957 3.76365
1 23.9341 19.6394 3.76491
1 25.2241 20.3814 3.73864
1 26.5114 19.6444 -0.2805
1 27.7624 20.397 -0.124234
1 29.0182 19.6713 0.127714
1 30.2786 20.3907 0.168028
1 31.5651 19.6524 0.12865
1 32.8102 20.3738 0.0499693
1 34.0995 19.6264 0.143234
1 35.3583 20.3517 0.187502
1 36.6316 19.6263 0.20689
1 37.8897 20.3735 0.334967
1 39.1589 19.6245 0.420947
1 40.4095 20.399 0.491758
1 41.6727 19.6632 0.61657
1 42.9237 20.3853 0.747431
1 44.2232 19.6519 0.893763
1 45.4582 20.4147 0.838569
1 46.7293 19.6528 0.715574
1 47.9714 20.4052 0.567361
1 49.2722 19.6896 0.565411
1 50.5186 20.4351 0.449391
1 51.7895 19.6399 0.278173
1 53.0145 20.3335 0.189774
1 54.3057 19.6289 4.36518
1 55.5467 20.3911 0.0923452
1 56.8114 19.6634 0.156753
1 58.0687 20.4261 0.241766
1 59.3566 19.6517 0.243082
1 60.6405 20.3903 0.270182
1 12.5897 21.8617 0.23219
1 13.8593 22.5792 0.265923
1 15.1296 21.8469 0.210264
1 16.3955 22.5651 0.240929
1 17.6195 21.842 0.12338
1 18.8658 22.5831 -0.00254505
1 20.1508 21.8372 4.18102
1 21.4045 22.583 4.03323
1 22.6962 21.8815 3.82465
1 23.974 22.5908 3.81227
1 25.2264 21.861 3.86506
1 26.4818 22.5806 3.93775
1 27.7401 21.8549 -0.0630073
1 29.0095 22.5933 0.0508175
1 30.254 21.8422 0.184621
1 31.545 22.5752 0.128905
1 32.8117 21.828 0.0600101
1 34.0496 22.5539 0.0222094
1 35.3363 21.8256 0.15949
1 36.566 22.5439 0.336781
1 37.8606 21.8322 0.359919
1 39.1257 22.5865 0.487064
1 40.3895 21.8464 0.574818
1 41.6362 22.5713 0.577492
1 42.9343 21.871 0.623792
1 44.1946 22.6049 0.769741
1 45.4665 21.8742 0.803533
1 46.7146 22.5927 0.624365
1 47.963 21.8401 0.44225
1 49.209 22.5609 0.33831
1 50.5032 21.8531 0.426436
1 51.7208 22.566 0.224843
1 52.9762 21.826 4.23267
1 54.2203 22.5655 4.12886
1 55.5311 21.8388 -0.0835742
1 56.8009 22.5664 -0.00126296
1 58.0641 21.8725 0.132106
1 59.3304 22.6101 0.16098
1 60.6397 21.8764 0.249373
1 61.8742 22.5704 0.290063
1 64.4245 24.0814 0.362415
1 15.0793 24.8073 0.420954
1 16.4049 24.0829 0.378448
1 17.6188 24.7824 0.354494
1 18.8813 24.0133 0.0482772
1 20.1449 24.7702 -0.088172
1 21.4182 24.0459 4.03733
1 22.6855 24.7377 4.02971
1 23.9267 24.0479 3.90559
1 25.217 24.7571 3.82458
1 26.4853 24.0373 3.92441
1 27.7215 24.7597 3.95814
1 29.0084 24.0594 4.19344
1 30.2427 24.7913 4.14147
1 31.5341 24.0631 0.0522073
1 32.8063 24.7691 4.0575
1 34.0793 24.0217 -0.0405553
1 35.3592 24.769 0.0714868
1 36.5819 24.0282 0.325708
1 37.8935 24.7418 0.427609
1 39.1264 24.0423 0.472426
1 40.3519 24.7572 0.523779
1 41.6378 24.0174 0.535965
1 42.9492 24.7613 0.61992
1 44.1889 24.0637 0.703081
1 45.45 24.7845 0.705395
1 46.7297 24.0468 0.543903
1 47.9834 24.7862 0.456516
1 49.2201 24.0446 0.365787
1 50.4898 24.768 0.240248
1 51.7269 24.0293 0.163086
1 52.9628 24.7471 4.08172
1 54.2395 24.0297 4.12777
1 55.5156 24.7557 4.22617
1 56.774 24.0245 0.107058
1 58.0298 24.7579 0.388496
1 59.2833 24.0361 0.272217
1 60.593 24.7366 0.316577
1 61.8742 23.9975 0.316313
1 63.1373 24.7733 0.414511
1 65.6324 26.2523 0.532776
1 16.3503 26.9713 0.598853
1 17.6092 26.2179 0.418214
1 18.8672 26.9349 0.26749
1 20.1474 26.2491 0.067521
1 21.4183 26.9634 4.17865
1 22.6926 26.1867 4.00891
1 23.9071 26.9534 3.79667
1 25.1929 26.2462 3.75543
1 26.4375 26.9727 3.78874
1 27.7177 26.2456 3.79054
1 28.9701 26.9691 3.7609
1 30.247 26.2603 3.91167
1 31.5132 26.9803 3.88141
1 32.792 26.2351 3.90508
1 34.0899 26.9579 3.88776
1 35.3535 26.2356 4.0775
1 36.6252 26.9678 0.179546
1 37.8875 26.1988 0.329589
1 39.1508 26.9368 0.397369
1 40.3844 26.2312 0.467899
1 41.6448 26.952 0.5318
1 42.9144 26.2345 0.6647
1 44.1994 26.9763 0.672935
1 45.46 26.2589 0.57893
1 46.7529 26.9633 0.393002
1 47.9926 26.2234 0.354101
1 49.2604 26.9686 0.190434
1 50.4963 26.2258 4.23183
1 51.7428 26.9219 -0.0988122
1 53.001 26.1948 -0.0371042
1 54.2586 26.9157 4.13633
1 55.5015 26.2116 4.25899
1 56.8433 26.96 0.120401
1 58.084 26.2181 0.32899
1 59.325 26.9355 0.372606
1 60.58 26.2083 0.461709
1 61.8186 26.9448 0.636077
1 63.097 26.2308 0.599706
1 64.3552 26.977 0.7219
1 16.3338 28.4263 0.568641
1 17.6109 29.1401 0.536801
1 18.897 28.4237 0.437292
1 20.1661 29.1598 0.302076
1 21.4187 28.3984 4.23925
1 22.6659 29.114 0.0011023
1 23.91 28.4079 3.92518
1 25.1958 29.1463 3.95585
1 26.456 28.4261 3.81889
1 27.7249 29.1418 3.85878
1 28.9715 28.4312 3.81554
1 30.2521 29.1541 3.82902
1 31.5367 28.4274 3.83423
1 32.7884 29.1716 3.97253
1 34.0763 28.4463 3.90298
1 35.3789 29.1745 4.14163
1 36.629 28.4391 4.27258
1 37.8897 29.1647 0.265413
1 39.1383 28.4436 0.363265
1 40.3927 29.1589 0.410379
1 41.6567 28.4251 0.471392
1 42.8986 29.1779 0.535588
1 44.1874 28.4536 0.652291
1 45.4706 29.1768 0.484191
1 46.725 28.4238 0.35775
1 48.0039 29.1569 0.0536044
1 49.2332 28.4377 -0.0339453
1 50.4953 29.1136 3.762
1 51.7295 28.3977 3.8267
1 53.0175 29.118 3.95597
1 54.2967 28.3716 4.10997
1 55.5483 29.0978 4.05562
1 56.8361 28.3881 4.13499
1 58.1247 29.1098 0.0345083
1 59.3567 28.416 0.21046
1 60.5696 29.1679 0.430487
1 61.7864 28.4715 0.715928
1 63.1113 29.1774 0.741052
1 64.3506 28.4278 0.765463
1 65.6595 29.1205 0.661457
1 68.2145 30.58 0.403767
1 18.8994 31.299 0.353995
1 20.1618 30.5944 0.370546
1 21.4216 31.3349 0.262392
1 22.6778 30.6023 0.0600157
1 23.9378 31.3319 -0.0158168
1 25.2143 30.6022 4.10945
1 26.4956 31.3299 4.07486
1 27.7497 30.5966 4.03502
1 29.0411 31.336 4.10598
1 30.2822 30.6366 3.94435
1 31.5275 31.3799 3.92055
1 32.8328 30.6442 3.86956
1 34.0793 31.3424 3.85122
1 35.374 30.6299 4.00718
1 36.6368 31.3314 0.0237859
1 37.8931 30.6027 0.142789
1 39.149 31.3244 0.256948
1 40.4205 30.6178 0.320848
1 41.6758 31.349 0.247781
1 42.8919 30.6379 0.424928
1 44.2177 31.3464 0.33745
1 45.5017 30.6277 0.364248
1 46.7441 31.3246 0.104222
1 47.9933 30.5898 -0.101022
1 49.2369 31.3671 3.80382
1 50.5367 30.6124 3.73366
1 51.8009 31.3181 3.70524
1 53.0456 30.5823 3.85076
1 54.2977 31.2971 3.82495
1 55.5645 30.5681 3.92206
1 56.8507 31.3366 3.85693
1 58.1198 30.5758 3.97374
1 59.3688 31.3331 4.05453
1 60.5689 30.5876 0.258889
1 61.8627 31.3558 0.431715
1 63.1217 30.6474 0.580996
1 64.401 31.3569 0.464722
1 65.6664 30.5912 0.504948
1 66.9484 31.2865 0.356381
1 69.4737 32.7662 0.262054
1 20.1391 33.494 0.337523
1 21.4216 32.7871 0.293677
1 22.7064 33.5408 0.238513
1 23.9551 32.8329 0.106242
1 25.2355 33.5025 0.216624
1 26.4888 32.7445 0.209239
1 27.7923 33.4768 0.274878
1 29.04 32.7843 0.0825219
1 30.2734 33.5016 -0.104808
1 31.5166 32.7933 -0.218098
1 32.7829 33.5317 4.00171
1 34.0494 32.8002 3.94506
1 35.3152 33.4947 4.15737
1 36.637 32.7621 -0.0152012
1 37.9085 33.4755 -0.0184417
1 39.1578 32.7699 0.115596
1 40.4068 33.5385 4.25724
1 41.6812 32.8211 0.193787
1 42.9272 33.5826 0.0692589
1 44.2297 32.8287 0.0973886
1 45.4757 33.5311 -0.0138067
1 46.7527 32.8202 0.0218102
1 48.019 33.5724 3.96779
1 49.2347 32.8303 3.77396
1 50.5331 33.5438 3.66972
1 51.812 32.7981 3.68822
1 53.0888 33.5213 3.5466
1 54.3054 32.7956 3.72974
1 55.5854 33.5043 3.62585
1 56.8632 32.7682 3.81644
1 58.0984 33.4994 4.01188
1 59.3622 32.788 4.0678
1 60.5977 33.5218 0.0750688
1 61.8699 32.8202 0.314487
1 63.1578 33.5302 0.411072
1 64.4163 32.7955 0.440581
1 65.6557 33.5017 0.287672
1 66.9265 32.7818 0.254252
1 68.1937 33.5002 0.211636
1 70.7059 34.9414 0.282242
1 21.4219 35.6873 0.184029
1 22.6935 34.9723 0.0899915
1 23.9457 35.7 0.0884485
1 25.2173 34.9519 0.23352
1 26.4741 35.6627 0.161594
1 27.7439 34.9505 0.172214
1 29.0431 35.6815 0.100723
1 30.2744 34.979 -0.0581848
1 31.5653 35.6833 4.01495
1 32.8146 34.9719 4.08288
1 34.0948 35.6843 4.08181
1 35.3382 34.9692 0.0487387
1 36.6248 35.6898 0.0394209
1 37.8785 34.939 0.0475251
1 39.1397 35.7252 0.149603
1 40.4079 34.9867 4.31158
1 41.672 35.721 4.17401
1 42.9489 35.0251 -0.0138608
1 44.2084 35.7433 4.03126
1 45.4804 35.0027 4.09218
1 46.7599 35.732 3.99356
1 48.0368 35.0016 3.95485
1 49.2653 35.7284 3.87131
1 50.5564 35.0042 3.70173
1 51.7764 35.716 3.52128
1 53.0706 34.9767 3.45175
1 54.3378 35.7109 3.57312
1 55.5866 34.9964 3.65474
1 56.8262 35.7258 3.85981
1 58.0844 34.9831 4.01495
1 59.3585 35.6849 -0.0105958
1 60.6104 34.974 0.0193115
1 61.8888 35.7135 0.0299421
1 63.1637 34.9722 0.113302
1 64.3934 35.6736 0.0697388
1 65.6737 34.947 0.0813601
1 66.939 35.6923 -0.0145749
1 68.1816 34.9456 0.110628
1 69.4606 35.6667 4.28845
1 21.4163 37.1253 0.237997
1 22.6654 37.8727 0.136257
1 23.9237 37.1552 0.125259
1 25.1933 37.8951 0.121586
1 26.4614 37.1327 0.1124
1 27.7396 37.8535 0.0594064
1 28.9938 37.1283 0.0497927
1 30.2873 37.8914 4.09149
1 31.5773 37.1323 4.05831
1 32.8447 37.8849 4.07044
1 34.0904 37.1397 4.00812
1 35.3603 37.9042 3.94712
1 36.6343 37.1697 4.07413
1 37.8726 37.8793 3.94426
1 39.1607 37.1748 4.0429
1 40.3805 37.9251 -0.184796
1 41.6551 37.1976 4.09812
1 42.9206 37.897 3.99416
1 44.1888 37.1797 3.99015
1 45.457 37.9041 3.92524
1 46.7487 37.1702 3.87462
1 47.9869 37.9127 3.89026
1 49.2386 37.1607 3.80127
1 50.493 37.8914 3.71985
1 51.7623 37.1791 3.60797
1 52.9956 37.9018 3.48117
1 54.3095 37.199 3.4689
1 55.5614 37.9036 3.74142
1 56.8333 37.1631 3.80342
1 58.0872 37.9251 -0.237138
1 59.3281 37.1923 0.0277941
1 60.6251 37.9284 4.09566
1 61.9093 37.2083 4.24329
1 63.1165 37.9222 4.17042
1 64.3883 37.1621 4.12755
1 65.6743 37.8999 0.0320509
1 66.9218 37.1509 -0.0015624
1 68.2004 37.8867 0.0179059
1 69.4628 37.1428 0.171316
1 70.7375 37.8623 4.32018
1 22.6804 39.3257 0.10206
1 23.9133 40.0716 0.094969
1 25.2178 39.3662 0.0638368
1 26.436 40.0692 -0.0204971
1 27.7348 39.3219 4.06954
1 29.046 40.0446 3.9298
1 30.2975 39.3257 3.96705
1 31.5731 40.0584 3.84233
1 32.8587 39.3371 3.89778
1 34.1194 40.0376 3.67438
1 35.3617 39.3342 3.72261
1 36.6136 40.0558 3.62752
1 37.8621 39.3502 3.73094
1 39.0748 40.1022 3.72767
1 40.3569 39.3861 3.79898
1 41.6127 40.1227 3.80647
1 42.8868 39.3845 4.03781
1 44.1782 40.123 3.97748
1 45.4534 39.3666 3.9408
1 46.7165 40.0901 3.92483
1 47.9581 39.3704 3.97842
1 49.2273 40.1455 3.88907
1 50.4681 39.3824 3.73999
1 51.7015 40.1186 3.76177
1 52.989 39.3502 3.64032
1 54.2759 40.059 3.83339
1 55.5468 39.3557 3.79744
1 56.7891 40.1028 3.79564
1 58.0684 39.3694 3.8618
1 59.3272 40.096 3.8501
1 60.6125 39.3465 3.94576
1 61.8689 40.1027 3.85646
1 63.12 39.3719 3.97829
1 64.4191 40.0937 3.88851
1 65.7089 39.3572 3.95484
1 66.9563 40.0794 -0.0361962
1 68.2117 39.3572 -0.0277579
1 69.4772 40.0706 0.0763748
1 70.7288 39.351 0.130473
1 72.0069 40.0657 0.0618331
1 74.5075 41.5406 0.0883797
1 25.2072 42.2467 3.92915
1 26.4856 41.5261 3.96001
1 27.782 42.2358 3.77732
1 29.0439 41.514 3.82903
1 30.3054 42.2731 3.7245
1 31.5625 41.5163 3.72217
1 32.8329 42.2778 3.4461
1 34.1178 41.5303 3.45865
1 35.3652 42.2359 3.40636
1 36.6108 41.5226 3.48345
1 37.826 42.2445 3.58731
1 39.0773 41.5485 3.71881
1 40.3594 42.3009 3.62551
1 41.6031 41.5673 3.7284
1 42.9308 42.2605 3.73851
1 44.1791 41.5717 3.87629
1 45.4573 42.3086 4.0024
1 46.701 41.5336 3.89512
1 47.9939 42.2896 3.85329
1 49.2307 41.5863 3.82959
1 50.4891 42.3473 3.66434
1 51.7384 41.5929 3.71534
1 53.0073 42.3006 3.73081
1 54.2551 41.5487 3.77668
1 55.5279 42.3012 3.77932
1 56.7827 41.5199 3.75145
1 58.0712 42.2778 3.81109
1 59.3507 41.5766 3.90118
1 60.6212 42.2804 3.9142
1 61.8774 41.5345 3.86892
1 63.1417 42.2791 3.90559
1 64.4389 41.534 3.87619
1 65.6872 42.2673 4.01916
1 66.9522 41.5501 4.06768
1 68.1687 42.2796 4.03689
1 69.4631 41.5444 4.06991
1 70.7069 42.251 4.05621
1 71.9721 41.5291 0.0601287
1 73.2529 42.2624 4.12453
800
Atoms. Timestep: 100000
1 75.7412 43.7321 3.62681
1 1.22116 0.725204 3.68451
1 27.7215 43.7478 3.7665
1 3.72822 0.748398 3.71357
1 30.2527 43.7411 3.66119
1 6.29034 0.703452 3.56177
1 32.7892 43.7021 3.39892
1 8.78579 0.661291 3.46406
1 10.0638 -0.0834953 3.52904
1 11.3194 0.67804 3.51726
1 12.5731 -0.0447287 3.64572
1 13.8434 0.686472 3.60541
1 15.0854 -0.0636133 3.56055
1 16.3623 0.661141 3.56839
1 17.6429 -0.0571583 3.58895
1 18.9359 0.704655 3.63954
1 45.4515 43.7564 3.66888
1 21.4235 0.685929 3.63664
1 47.8984 43.6863 3.70667
1 23.9208 0.681916 3.80486
1 50.4575 43.6933 3.57209
1 26.5266 0.690767 3.52457
1 27.7483 -0.0176023 3.33016
1 29.0461 0.710469 3.50457
1 55.5557 43.7526 3.49404
1 31.5282 0.735519 3.38973
1 58.0406 43.7427 3.38313
1 34.0897 0.741482 3.39873
1 35.372 0.011622 3.44463
1 36.6328 0.736031 3.53316
1 37.8721 0.0122166 3.61494
1 39.127 0.699325 3.68473
1 40.3924 -0.0677736 3.81801
1 41.6547 0.67755 3.82314
1 42.8837 -0.0209471 4.02772
1 44.1443 0.707187 3.96122
1 45.4245 -0.0248383 3.92441
1 46.6624 0.722529 3.80051
1 73.2094 43.7531 3.78793
1 49.2248 0.702018 3.54415
1 51.7356 2.16992 3.67035
1 2.48097 2.8817 3.56074
1 3.74281 2.17924 3.61312
1 4.99802 2.87355 3.45767
1 6.27965 2.15719 3.52882
1 7.55771 2.88472 3.47846
1 8.80625 2.11799 3.50801
1 10.0528 2.86611 3.53256
1 11.2969 2.1556 3.47037
1 12.5446 2.89068 3.30506
1 13.8045 2.14541 3.37121
1 15.0914 2.8923 3.46809
1 16.3673 2.15861 3.57211
1 17.642 2.90147 3.4898
1 18.9346 2.18651 3.58612
1 20.1764 2.89903 3.53607
1 21.4003 2.15078 3.50663
1 22.6793 2.87757 3.57401
1 23.94 2.16619 3.70032
1 25.2112 2.88291 3.71503
1 26.4994 2.1118 3.70749
1 27.7898 2.83891 3.84285
1 29.037 2.14815 3.85165
1 30.2773 2.86857 3.92654
1 31.51 2.16487 3.69604
1 32.7941 2.90516 3.66259
1 34.0587 2.19968 3.57029
1 35.3426 2.92098 3.62597
1 36.625 2.19351 3.55391
1 37.9175 2.91442 3.67739
1 39.1514 2.16798 3.72477
1 40.403 2.88783 3.83162
1 41.6472 2.14906 3.88207
1 42.8962 2.9027 3.87604
1 44.1728 2.15362 3.94614
1 45.4083 2.88876 3.98863
1 46.6428 2.15367 3.78733
1 47.916 2.90598 3.68937
1 49.2166 2.18339 3.6488
1 50.4866 2.90263 3.69993
1 53.0242 4.33485 3.51911
1 3.72807 5.07888 3.41637
1 4.99637 4.3325 3.41182
1 6.24854 5.07913 3.46265
1 7.56255 4.35282 3.41006
1 8.83183 5.09527 3.43541
1 10.082 4.36926 3.50304
1 11.3408 5.12365 3.34599
1 12.5499 4.34559 3.19431
1 13.8328 5.06616 3.22377
1 15.1036 4.34616 3.34376
1 16.3817 5.0702 3.43259
1 17.6592 4.35696 3.32156
1 18.9034 5.10694 3.3651
1 20.1498 4.33954 3.53644
1 21.3889 5.06645 3.61255
1 22.6598 4.33703 3.76045
1 23.9174 5.03555 3.81872
1 25.2418 4.28747 3.87556
1 26.5102 5.01279 3.94208
1 27.771 4.28302 3.92507
1 29.0177 5.02239 3.99522
1 30.2708 4.31326 4.09754
1 31.5554 5.05603 4.10425
1 32.8119 4.32588 3.89826
1 34.0828 5.07103 3.90193
1 35.3443 4.35214 3.80247
1 36.6217 5.08332 3.8833
1 37.8805 4.38139 3.75918
1 39.1859 5.09124 3.81664
1 40.3957 4.32376 3.82783
1 41.6685 5.10083 3.92688
1 42.9442 4.36591 3.8399
1 44.1533 5.08581 3.97662
1 45.4117 4.34361 3.9585
1 46.6643 5.06998 3.87081
1 47.9075 4.37807 3.64132
1 49.2041 5.07135 3.78003
1 50.5088 4.35591 3.66333
1 51.7399 5.0563 3.63424
1 54.2623 6.54312 3.52422
1 4.96955 7.28159 3.51426
1 6.26344 6.54637 3.47275
1 7.51852 7.27632 3.5167
1 8.81759 6.53372 3.47028
1 10.0616 7.2713 3.48042
1 11.3007 6.56803 3.35739
1 12.571 7.2635 3.4448
1 13.8464 6.54019 3.42434
1 15.1044 7.24854 3.54145
1 16.3749 6.50837 3.53467
1 17.6225 7.25864 3.51227
1 18.877 6.55957 3.38703
1 20.14 7.30517 3.51601
1 21.4269 6.54105 3.57413
1 22.6832 7.25921 3.68764
1 23.9346 6.50891 3.79083
1 25.2104 7.21424 3.84406
1 26.4901 6.45848 3.88052
1 27.7797 7.21554 3.91336
1 29.0263 6.51495 -0.0972269
1 30.3066 7.24196 0.0507395
1 31.5795 6.50219 0.0383688
1 32.8585 7.25111 0.083658
1 34.0777 6.53757 4.01058
1 35.3093 7.28095 4.02759
1 36.6364 6.51471 3.97652
1 37.8768 7.27171 4.06826
1 39.158 6.551 3.91459
1 40.3818 7.28358 4.00033
1 41.6501 6.55956 4.03309
1 42.9191 7.27783 0.0129522
1 44.1488 6.51194 0.149008
1 45.4038 7.20211 0.254636
1 46.6714 6.48672 0.0203372
1 47.9503 7.22796 0.113339
1 49.2106 6.48679 4.13228
1 50.4595 7.22552 -0.0112353
1 51.725 6.508 3.82057
1 52.9606 7.27075 3.69874
1 55.465 8.73306 3.70586
1 6.22035 9.46949 3.64257
1 7.49296 8.71395 3.62802
1 8.79857 9.42138 3.57724
1 10.0564 8.70546 3.5031
1 11.3255 9.45051 3.47532
1 12.5749 8.73387 3.47982
1 13.8252 9.3885 3.77497
1 15.0781 8.69672 3.72743
1 16.3606 9.40959 3.90343
1 17.6349 8.7143 3.77709
1 18.8527 9.46874 3.66128
1 20.1323 8.70913 3.72214
1 21.4145 9.46694 3.74289
1 22.684 8.71243 3.85814
1 23.9193 9.39684 4.04127
1 25.2592 8.65833 3.92688
1 26.4971 9.40094 3.95858
1 27.7374 8.70178 3.94581
1 29.001 9.43612 4.06752
1 30.3057 8.69794 4.14337
1 31.5807 9.44139 4.17206
1 32.8529 8.70102 0.107492
1 34.0796 9.45328 0.162197
1 35.3227 8.74031 0.0452035
1 36.6175 9.46068 0.176998
1 37.8614 8.71118 0.125919
1 39.0847 9.41719 0.143539
1 40.3601 8.72754 4.14299
1 41.6226 9.42885 0.111456
1 42.8667 8.68992 0.254308
1 44.1402 9.42055 0.413371
1 45.4165 8.65879 0.386093
1 46.6906 9.42461 0.255687
1 47.9312 8.68195 0.0504293
1 49.1945 9.40149 0.139331
1 50.4475 8.69116 0.0337766
1 51.6901 9.44309 4.06796
1 52.9485 8.75296 3.82796
1 54.23 9.46917 3.87996
1 6.22797 10.9445 3.77193
1 7.51041 11.6563 3.80844
1 8.79519 10.8912 3.74673
1 10.0632 11.609 3.79181
1 11.3283 10.9186 3.68925
1 12.5714 11.639 3.82484
1 13.8449 10.8785 3.89349
1 15.1004 11.5908 4.02701
1 16.3581 10.8996 4.05045
1 17.632 11.6519 3.99779
1 18.8669 10.9342 3.78046
1 20.1748 11.6376 3.87454
1 21.4306 10.8956 3.8658
1 22.7212 11.6254 3.96256
1 23.9694 10.8728 4.00041
1 25.2381 11.5784 3.96594
1 26.4575 10.8764 4.01632
1 27.7613 11.6242 4.1305
1 29.0148 10.8717 0.103316
1 30.294 11.5813 0.0843699
1 31.59 10.8757 0.0806845
1 32.8393 11.5984 0.212428
1 34.1145 10.8848 0.3132
1 35.3494 11.6291 0.454187
1 36.5934 10.9157 0.344349
1 37.8155 11.6254 0.447485
1 39.0965 10.8834 0.325821
1 40.3543 11.6523 0.392897
1 41.6478 10.9363 0.269503
1 42.8929 11.6762 0.426221
1 44.1635 10.9189 0.425102
1 45.4434 11.6397 0.541573
1 46.7009 10.86 0.512416
1 47.9541 11.5738 0.534904
1 49.1814 10.852 0.273403
1 50.4525 11.6254 0.228229
1 51.711 10.9089 0.131818
1 52.9732 11.6413 0.156223
1 54.2176 10.9312 4.08462
1 55.4984 11.6926 3.98333
1 58.0572 13.0867 4.06704
1 8.76649 13.8023 4.08725
1 10.0433 13.0458 3.94945
1 11.3149 13.751 3.96399
1 12.5902 13.0559 3.94222
1 13.846 13.7746 4.04352
1 15.1007 13.0623 4.03243
1 16.3599 13.8282 4.08613
1 17.63 13.103 4.07332
1 18.9312 13.8322 4.1624
1 20.2017 13.1146 4.00224
1 21.4496 13.8293 4.0885
1 22.7261 13.1229 4.03475
1 24.0324 13.846 4.00585
1 25.273 13.0566 3.956
1 26.5286 13.7694 3.89279
1 27.7898 13.0552 3.9176
1 29.0416 13.7722 4.02735
1 30.2797 13.0511 0.0901262
1 31.5562 13.7995 0.163756
1 32.8364 13.0524 0.266625
1 34.1201 13.7958 0.436224
1 35.3513 13.0611 0.483022
1 36.5998 13.8108 0.634297
1 37.8371 13.1135 0.650678
1 39.1165 13.8348 0.756089
1 40.3684 13.0873 0.559043
1 41.6077 13.8394 0.627408
1 42.8747 13.1026 0.57601
1 44.123 13.8345 0.610445
1 45.4452 13.1041 0.63559
1 46.6757 13.8132 0.681889
1 47.9524 13.0668 0.651509
1 49.1997 13.8508 0.557162
1 50.4336 13.0954 0.475785
1 51.7102 13.8296 0.540779
1 52.9869 13.0963 0.302037
1 54.214 13.8362 0.182687
1 55.5066 13.1283 -0.0148227
1 56.7991 13.8409 0.146419
1 8.78576 15.2696 0.238578
1 10.041 15.9813 0.136787
1 11.2821 15.2459 0.00384962
1 12.5841 15.9755 0.150566
1 13.8536 15.241 0.15126
1 15.1972 15.9592 0.117538
1 16.4092 15.2585 0.145024
1 17.6546 15.9697 0.222831
1 18.9114 15.2559 0.157347
1 20.1666 15.9831 0.112689
1 21.4362 15.2626 0.100188
1 22.7394 16.0146 4.0482
1 24.0222 15.2929 3.95635
1 25.2785 15.9683 3.67034