800
Atoms. Timestep: 0
1 0 0 0
1 1.261 0.728039 0
1 2.522 0 0
1 3.783 0.728039 0
1 5.044 0 0
1 6.305 0.728039 0
1 7.566 0 0
1 8.827 0.728039 0
1 10.088 0 0
1 11.349 0.728039 0
1 12.61 0 0
1 13.871 0.728039 0
1 15.132 0 0
1 16.393 0.728039 0
1 17.654 0 0
1 18.915 0.728039 0
1 20.176 0 0
1 21.437 0.728039 0
1 22.698 0 0
1 23.959 0.728039 0
1 25.22 0 0
1 26.481 0.728039 0
1 27.742 0 0
1 29.003 0.728039 0
1 30.264 0 0
1 31.525 0.728039 0
1 32.786 0 0
1 34.047 0.728039 0
1 35.308 0 0
1 36.569 0.728039 0
1 37.83 0 0
1 39.091 0.728039 0
1 40.352 0 0
1 41.613 0.728039 0
1 42.874 0 0
1 44.135 0.728039 0
1 45.396 0 0
1 46.657 0.728039 0
1 47.918 0 0
1 49.179 0.728039 0
1 1.261 2.18412 0
1 2.522 2.91215 0
1 3.783 2.18412 0
1 5.044 2.91215 0
1 6.305 2.18412 0
1 7.566 2.91215 0
1 8.827 2.18412 0
1 10.088 2.91215 0
1 11.349 2.18412 0
1 12.61 2.91215 0
1 13.871 2.18412 0
1 15.132 2.91215 0
1 16.393 2.18412 0
1 17.654 2.91215 0
1 18.915 2.18412 0
1 20.176 2.91215 0
1 21.437 2.18412 0
1 22.698 2.91215 0
1 23.959 2.18412 0
1 25.22 2.91215 0
1 26.481 2.18412 0
1 27.742 2.91215 0
1 29.003 2.18412 0
1 30.264 2.91215 0
1 31.525 2.18412 0
1 32.786 2.91215 0
1 34.047 2.18412 0
1 35.308 2.91215 0
1 36.569 2.18412 0
1 37.83 2.91215 0
1 39.091 2.18412 0
1 40.352 2.91215 0
1 41.613 2.18412 0
1 42.874 2.91215 0
1 44.135 2.18412 0
1 45.396 2.91215 0
1 46.657 2.18412 0
1 47.918 2.91215 0
1 49.179 2.18412 0
1 50.44 2.91215 0
1 2.522 4.36823 0
1 3.783 5.09627 0
1 5.044 4.36823 0
1 6.305 5.09627 0
1 7.566 4.36823 0
1 8.827 5.09627 0
1 10.088 4.36823 0
1 11.349 5.09627 0
1 12.61 4.36823 0
1 13.871 5.09627 0
1 15.132 4.36823 0
1 16.393 5.09627 0
1 17.654 4.36823 0
1 18.915 5.09627 0
1 20.176 4.36823 0
1 21.437 5.09627 0
1 22.698 4.36823 0
1 23.959 5.09627 0
1 25.22 4.36823 0
1 26.481 5.09627 0
1 27.742 4.36823 0
1 29.003 5.09627 0
1 30.264 4.36823 0
1 31.525 5.09627 0
1 32.786 4.36823 0
1 34.047 5.09627 0
1 35.308 4.36823 0
1 36.569 5.09627 0
1 37.83 4.36823 0
1 39.091 5.09627 0
1 40.352 4.36823 0
1 41.613 5.09627 0
1 42.874 4.36823 0
1 44.135 5.09627 0
1 45.396 4.36823 0
1 46.657 5.09627 0
1 47.918 4.36823 0
1 49.179 5.09627 0
1 50.44 4.36823 0
1 51.701 5.09627 0
1 3.783 6.55235 0
1 5.044 7.28039 0
1 6.305 6.55235 0
1 7.566 7.28039 0
1 8.827 6.55235 0
1 10.088 7.28039 0
1 11.349 6.55235 0
1 12.61 7.28039 0
1 13.871 6.55235 0
1 15.132 7.28039 0
1 16.393 6.55235 0
1 17.654 7.28039 0
1 18.915 6.55235 0
1 20.176 7.28039 0
1 21.437 6.55235 0
1 22.698 7.28039 0
1 23.959 6.55235 0
1 25.22 7.28039 0
1 26.481 6.55235 0
1 27.742 7.28039 0
1 29.003 6.55235 0
1 30.264 7.28039 0
1 31.525 6.55235 0
1 32.786 7.28039 0
1 34.047 6.55235 0
1 35.308 7.28039 0
1 36.569 6.55235 0
1 37.83 7.28039 0
1 39.091 6.55235 0
1 40.352 7.28039 0
1 41.613 6.55235 0
1 42.874 7.28039 0
1 44.135 6.55235 0
1 45.396 7.28039 0
1 46.657 6.55235 0
1 47.918 7.28039 0
1 49.179 6.55235 0
1 50.44 7.28039 0
1 51.701 6.55235 0
1 52.962 7.28039 0
1 5.044 8.73646 0
1 6.305 9.4645 0
1 7.566 8.73646 0
1 8.827 9.4645 0
1 10.088 8.73646 0
1 11.349 9.4645 0
1 12.61 8.73646 0
1 13.871 9.4645 0
1 15.132 8.73646 0
1 16.393 9.4645 0
1 17.654 8.73646 0
1 18.915 9.4645 0
1 20.176 8.73646 0
1 21.437 9.4645 0
1 22.698 8.73646 0
1 23.959 9.4645 0
1 25.22 8.73646 0
1 26.481 9.4645 0
1 27.742 8.73646 0
1 29.003 9.4645 0
1 30.264 8.73646 0
1 31.525 9.4645 0
1 32.786 8.73646 0
1 34.047 9.4645 0
1 35.308 8.73646 0
1 36.569 9.4645 0
1 37.83 8.73646 0
1 39.091 9.4645 0
1 40.352 8.73646 0
1 41.613 9.4645 0
1 42.874 8.73646 0
1 44.135 9.4645 0
1 45.396 8.73646 0
1 46.657 9.4645 0
1 47.918 8.73646 0
1 49.179 9.4645 0
1 50.44 8.73646 0
1 51.701 9.4645 0
1 52.962 8.73646 0
1 54.223 9.4645 0
1 6.305 10.9206 0
1 7.566 11.6486 0
1 8.827 10.9206 0
1 10.088 11.6486 0
1 11.349 10.9206 0
1 12.61 11.6486 0
1 13.871 10.9206 0
1 15.132 11.6486 0
1 16.393 10.9206 0
1 17.654 11.6486 0
1 18.915 10.9206 0
1 20.176 11.6486 0
1 21.437 10.9206 0
1 22.698 11.6486 0
1 23.959 10.9206 0
1 25.22 11.6486 0
1 26.481 10.9206 0
1 27.742 11.6486 0
1 29.003 10.9206 0
1 30.264 11.6486 0
1 31.525 10.9206 0
1 32.786 11.6486 0
1 34.047 10.9206 0
1 35.308 11.6486 0
1 36.569 10.9206 0
1 37.83 11.6486 0
1 39.091 10.9206 0
1 40.352 11.6486 0
1 41.613 10.9206 0
1 42.874 11.6486 0
1 44.135 10.9206 0
1 45.396 11.6486 0
1 46.657 10.9206 0
1 47.918 11.6486 0
1 49.179 10.9206 0
1 50.44 11.6486 0
1 51.701 10.9206 0
1 52.962 11.6486 0
1 54.223 10.9206 0
1 55.484 11.6486 0
1 7.566 13.1047 0
1 8.827 13.8327 0
1 10.088 13.1047 0
1 11.349 13.8327 0
1 12.61 13.1047 0
1 13.871 13.8327 0
1 15.132 13.1047 0
1 16.393 13.8327 0
1 17.654 13.1047 0
1 18.915 13.8327 0
1 20.176 13.1047 0
1 21.437 13.8327 0
1 22.698 13.1047 0
1 23.959 13.8327 0
1 25.22 13.1047 0
1 26.481 13.8327 0
1 27.742 13.1047 0
1 29.003 13.8327 0
1 30.264 13.1047 0
1 31.525 13.8327 0
1 32.786 13.1047 0
1 34.047 13.8327 0
1 35.308 13.1047 0
1 36.569 13.8327 0
1 37.83 13.1047 0
1 39.091 13.8327 0
1 40.352 13.1047 0
1 41.613 13.8327 0
1 42.874 13.1047 0
1 44.135 13.8327 0
1 45.396 13.1047 0
1 46.657 13.8327 0
1 47.918 13.1047 0
1 49.179 13.8327 0
1 50.44 13.1047 0
1 51.701 13.8327 0
1 52.962 13.1047 0
1 54.223 13.8327 0
1 55.484 13.1047 0
1 56.745 13.8327 0
1 8.827 15.2888 0
1 10.088 16.0169 0
1 11.349 15.2888 0
1 12.61 16.0169 0
1 13.871 15.2888 0
1 15.132 16.0169 0
1 16.393 15.2888 0
1 17.654 16.0169 0
1 18.915 15.2888 0
1 20.176 16.0169 0
1 21.437 15.2888 0
1 22.698 16.0169 0
1 23.959 15.2888 0
1 25.22 16.0169 0
1 26.481 15.2888 0
1 27.742 16.0169 0
1 29.003 15.2888 0
1 30.264 16.0169 0
1 31.525 15.2888 0
1 32.786 16.0169 0
1 34.047 15.2888 0
1 35.308 16.0169 0
1 36.569 15.2888 0
1 37.83 16.0169 0
1 39.091 15.2888 0
1 40.352 16.0169 0
1 41.613 15.2888 0
1 42.874 16.0169 0
1 44.135 15.2888 0
1 45.396 16.0169 0
1 46.657 15.2888 0
1 47.918 16.0169 0
1 49.179 15.2888 0
1 50.44 16.0169 0
1 51.701 15.2888 0
1 52.962 16.0169 0
1 54.223 15.2888 0
1 55.484 16.0169 0
1 56.745 15.2888 0
1 58.006 16.0169 0
1 10.088 17.4729 0
1 11.349 18.201 0
1 12.61 17.4729 0
1 13.871 18.201 0
1 15.132 17.4729 0
1 16.393 18.201 0
1 17.654 17.4729 0
1 18.915 18.201 0
1 20.176 17.4729 0
1 21.437 18.201 0
1 22.698 17.4729 0
1 23.959 18.201 0
1 25.22 17.4729 0
1 26.481 18.201 0
1 27.742 17.4729 0
1 29.003 18.201 0
1 30.264 17.4729 0
1 31.525 18.201 0
1 32.786 17.4729 0
1 34.047 18.201 0
1 35.308 17.4729 0
1 36.569 18.201 0
1 37.83 17.4729 0
1 39.091 18.201 0
1 40.352 17.4729 0
1 41.613 18.201 0
1 42.874 17.4729 0
1 44.135 18.201 0
1 45.396 17.4729 0
1 46.657 18.201 0
1 47.918 17.4729 0
1 49.179 18.201 0
1 50.44 17.4729 0
1 51.701 18.201 0
1 52.962 17.4729 0
1 54.223 18.201 0
1 55.484 17.4729 0
1 56.745 18.201 0
1 58.006 17.4729 0
1 59.267 18.201 0
1 11.349 19.657 0
1 12.61 20.3851 0
1 13.871 19.657 0
1 15.132 20.3851 0
1 16.393 19.657 0
1 17.654 20.3851 0
1 18.915 19.657 0
1 20.176 20.3851 0
1 21.437 19.657 0
1 22.698 20.3851 0
1 23.959 19.657 0
1 25.22 20.3851 0
1 26.481 19.657 0
1 27.742 20.3851 0
1 29.003 19.657 0
1 30.264 20.3851 0
1 31.525 19.657 0
1 32.786 20.3851 0
1 34.047 19.657 0
1 35.308 20.3851 0
1 36.569 19.657 0
1 37.83 20.3851 0
1 39.091 19.657 0
1 40.352 20.3851 0
1 41.613 19.657 0
1 42.874 20.3851 0
1 44.135 19.657 0
1 45.396 20.3851 0
1 46.657 19.657 0
1 47.918 20.3851 0
1 49.179 19.657 0
1 50.44 20.3851 0
1 51.701 19.657 0
1 52.962 20.3851 0
1 54.223 19.657 0
1 55.484 20.3851 0
1 56.745 19.657 0
1 58.006 20.3851 0
1 59.267 19.657 0
1 60.528 20.3851 0
1 12.61 21.8412 0
1 13.871 22.5692 0
1 15.132 21.8412 0
1 16.393 22.5692 0
1 17.654 21.8412 0
1 18.915 22.5692 0
1 20.176 21.8412 0
1 21.437 22.5692 0
1 22.698 21.8412 0
1 23.959 22.5692 0
1 25.22 21.8412 0
1 26.481 22.5692 0
1 27.742 21.8412 0
1 29.003 22.5692 0
1 30.264 21.8412 0
1 31.525 22.5692 0
1 32.786 21.8412 0
1 34.047 22.5692 0
1 35.308 21.8412 0
1 36.569 22.5692 0
1 37.83 21.8412 0
1 39.091 22.5692 0
1 40.352 21.8412 0
1 41.613 22.5692 0
1 42.874 21.8412 0
1 44.135 22.5692 0
1 45.396 21.8412 0
1 46.657 22.5692 0
1 47.918 21.8412 0
1 49.179 22.5692 0
1 50.44 21.8412 0
1 51.701 22.5692 0
1 52.962 21.8412 0
1 54.223 22.5692 0
1 55.484 21.8412 0
1 56.745 22.5692 0
1 58.006 21.8412 0
1 59.267 22.5692 0
1 60.528 21.8412 0
1 61.789 22.5692 0
1 13.871 24.0253 0
1 15.132 24.7533 0
1 16.393 24.0253 0
1 17.654 24.7533 0
1 18.915 24.0253 0
1 20.176 24.7533 0
1 21.437 24.0253 0
1 22.698 24.7533 0
1 23.959 24.0253 0
1 25.22 24.7533 0
1 26.481 24.0253 0
1 27.742 24.7533 0
1 29.003 24.0253 0
1 30.264 24.7533 0
1 31.525 24.0253 0
1 32.786 24.7533 0
1 34.047 24.0253 0
1 35.308 24.7533 0
1 36.569 24.0253 0
1 37.83 24.7533 0
1 39.091 24.0253 0
1 40.352 24.7533 0
1 41.613 24.0253 0
1 42.874 24.7533 0
1 44.135 24.0253 0
1 45.396 24.7533 0
1 46.657 24.0253 0
1 47.918 24.7533 0
1 49.179 24.0253 0
1 50.44 24.7533 0
1 51.701 24.0253 0
1 52.962 24.7533 0
1 54.223 24.0253 0
1 55.484 24.7533 0
1 56.745 24.0253 0
1 58.006 24.7533 0
1 59.267 24.0253 0
1 60.528 24.7533 0
1 61.789 24.0253 0
1 63.05 24.7533 0
1 15.132 26.2094 0
1 16.393 26.9374 0
1 17.654 26.2094 0
1 18.915 26.9374 0
1 20.176 26.2094 0
1 21.437 26.9374 0
1 22.698 26.2094 0
1 23.959 26.9374 0
1 25.22 26.2094 0
1 26.481 26.9374 0
1 27.742 26.2094 0
1 29.003 26.9374 0
1 30.264 26.2094 0
1 31.525 26.9374 0
1 32.786 26.2094 0
1 34.047 26.9374 0
1 35.308 26.2094 0
1 36.569 26.9374 0
1 37.83 26.2094 0
1 39.091 26.9374 0
1 40.352 26.2094 0
1 41.613 26.9374 0
1 42.874 26.2094 0
1 44.135 26.9374 0
1 45.396 26.2094 0
1 46.657 26.9374 0
1 47.918 26.2094 0
1 49.179 26.9374 0
1 50.44 26.2094 0
1 51.701 26.9374 0
1 52.962 26.2094 0
1 54.223 26.9374 0
1 55.484 26.2094 0
1 56.745 26.9374 0
1 58.006 26.2094 0
1 59.267 26.9374 0
1 60.528 26.2094 0
1 61.789 26.9374 0
1 63.05 26.2094 0
1 64.311 26.9374 0
1 16.393 28.3935 0
1 17.654 29.1215 0
1 18.915 28.3935 0
1 20.176 29.1215 0
1 21.437 28.3935 0
1 22.698 29.1215 0
1 23.959 28.3935 0
1 25.22 29.1215 0
1 26.481 28.3935 0
1 27.742 29.1215 0
1 29.003 28.3935 0
1 30.264 29.1215 0
1 31.525 28.3935 0
1 32.786 29.1215 0
1 34.047 28.3935 0
1 35.308 29.1215 0
1 36.569 28.3935 0
1 37.83 29.1215 0
1 39.091 28.3935 0
1 40.352 29.1215 0
1 41.613 28.3935 0
1 42.874 29.1215 0
1 44.135 28.3935 0
1 45.396 29.1215 0
1 46.657 28.3935 0
1 47.918 29.1215 0
1 49.179 28.3935 0
1 50.44 29.1215 0
1 51.701 28.3935 0
1 52.962 29.1215 0
1 54.223 28.3935 0
1 55.484 29.1215 0
1 56.745 28.3935 0
1 58.006 29.1215 0
1 59.267 28.3935 0
1 60.528 29.1215 0
1 61.789 28.3935 0
1 63.05 29.1215 0
1 64.311 28.3935 0
1 65.572 29.1215 0
1 17.654 30.5776 0
1 18.915 31.3057 0
1 20.176 30.5776 0
1 21.437 31.3057 0
1 22.698 30.5776 0
1 23.959 31.3057 0
1 25.22 30.5776 0
1 26.481 31.3057 0
1 27.742 30.5776 0
1 29.003 31.3057 0
1 30.264 30.5776 0
1 31.525 31.3057 0
1 32.786 30.5776 0
1 34.047 31.3057 0
1 35.308 30.5776 0
1 36.569 31.3057 0
1 37.83 30.5776 0
1 39.091 31.3057 0
1 40.352 30.5776 0
1 41.613 31.3057 0
1 42.874 30.5776 0
1 44.135 31.3057 0
1 45.396 30.5776 0
1 46.657 31.3057 0
1 47.918 30.5776 0
1 49.179 31.3057 0
1 50.44 30.5776 0
1 51.701 31.3057 0
1 52.962 30.5776 0
1 54.223 31.3057 0
1 55.484 30.5776 0
1 56.745 31.3057 0
1 58.006 30.5776 0
1 59.267 31.3057 0
1 60.528 30.5776 0
1 61.789 31.3057 0
1 63.05 30.5776 0
1 64.311 31.3057 0
1 65.572 30.5776 0
1 66.833 31.3057 0
1 18.915 32.7617 0
1 20.176 33.4898 0
1 21.437 32.7617 0
1 22.698 33.4898 0
1 23.959 32.7617 0
1 25.22 33.4898 0
1 26.481 32.7617 0
1 27.742 33.4898 0
1 29.003 32.7617 0
1 30.264 33.4898 0
1 31.525 32.7617 0
1 32.786 33.4898 0
1 34.047 32.7617 0
1 35.308 33.4898 0
1 36.569 32.7617 0
1 37.83 33.4898 0
1 39.091 32.7617 0
1 40.352 33.4898 0
1 41.613 32.7617 0
1 42.874 33.4898 0
1 44.135 32.7617 0
1 45.396 33.4898 0
1 46.657 32.7617 0
1 47.918 33.4898 0
1 49.179 32.7617 0
1 50.44 33.4898 0
1 51.701 32.7617 0
1 52.962 33.4898 0
1 54.223 32.7617 0
1 55.484 33.4898 0
1 56.745 32.7617 0
1 58.006 33.4898 0
1 59.267 32.7617 0
1 60.528 33.4898 0
1 61.789 32.7617 0
1 63.05 33.4898 0
1 64.311 32.7617 0
1 65.572 33.4898 0
1 66.833 32.7617 0
1 68.094 33.4898 0
1 20.176 34.9459 0
1 21.437 35.6739 0
1 22.698 34.9459 0
1 23.959 35.6739 0
1 25.22 34.9459 0
1 26.481 35.6739 0
1 27.742 34.9459 0
1 29.003 35.6739 0
1 30.264 34.9459 0
1 31.525 35.6739 0
1 32.786 34.9459 0
1 34.047 35.6739 0
1 35.308 34.9459 0
1 36.569 35.6739 0
1 37.83 34.9459 0
1 39.091 35.6739 0
1 40.352 34.9459 0
1 41.613 35.6739 0
1 42.874 34.9459 0
1 44.135 35.6739 0
1 45.396 34.9459 0
1 46.657 35.6739 0
1 47.918 34.9459 0
1 49.179 35.6739 0
1 50.44 34.9459 0
1 51.701 35.6739 0
1 52.962 34.9459 0
1 54.223 35.6739 0
1 55.484 34.9459 0
1 56.745 35.6739 0
1 58.006 34.9459 0
1 59.267 35.6739 0
1 60.528 34.9459 0
1 61.789 35.6739 0
1 63.05 34.9459 0
1 64.311 35.6739 0
1 65.572 34.9459 0
1 66.833 35.6739 0
1 68.094 34.9459 0
1 69.355 35.6739 0
1 21.437 37.13 0
1 22.698 37.858 0
1 23.959 37.13 0
1 25.22 37.858 0
1 26.481 37.13 0
1 27.742 37.858 0
1 29.003 37.13 0
1 30.264 37.858 0
1 31.525 37.13 0
1 32.786 37.858 0
1 34.047 37.13 0
1 35.308 37.858 0
1 36.569 37.13 0
1 37.83 37.858 0
1 39.091 37.13 0
1 40.352 37.858 0
1 41.613 37.13 0
1 42.874 37.858 0
1 44.135 37.13 0
1 45.396 37.858 0
1 46.657 37.13 0
1 47.918 37.858 0
1 49.179 37.13 0
1 50.44 37.858 0
1 51.701 37.13 0
1 52.962 37.858 0
1 54.223 37.13 0
1 55.484 37.858 0
1 56.745 37.13 0
1 58.006 37.858 0
1 59.267 37.13 0
1 60.528 37.858 0
1 61.789 37.13 0
1 63.05 37.858 0
1 64.311 37.13 0
1 65.572 37.858 0
1 66.833 37.13 0
1 68.094 37.858 0
1 69.355 37.13 0
1 70.616 37.858 0
1 22.698 39.3141 0
1 23.959 40.0421 0
1 25.22 39.3141 0
1 26.481 40.0421 0
1 27.742 39.3141 0
1 29.003 40.0421 0
1 30.264 39.3141 0
1 31.525 40.0421 0
1 32.786 39.3141 0
1 34.047 40.0421 0
1 35.308 39.3141 0
1 36.569 40.0421 0
1 37.83 39.3141 0
1 39.091 40.0421 0
1 40.352 39.3141 0
1 41.613 40.0421 0
1 42.874 39.3141 0
1 44.135 40.0421 0
1 45.396 39.3141 0
1 46.657 40.0421 0
1 47.918 39.3141 0
1 49.179 40.0421 0
1 50.44 39.3141 0
1 51.701 40.0421 0
1 52.962 39.3141 0
1 54.223 40.0421 0
1 55.484 39.3141 0
1 56.745 40.0421 0
1 58.006 39.3141 0
1 59.267 40.0421 0
1 60.528 39.3141 0
1 61.789 40.0421 0
1 63.05 39.3141 0
1 64.311 40.0421 0
1 65.572 39.3141 0
1 66.833 40.0421 0
1 68.094 39.3141 0
1 69.355 40.0421 0
1 70.616 39.3141 0
1 71.877 40.0421 0
1 23.959 41.4982 0
1 25.22 42.2262 0
1 26.481 41.4982 0
1 27.742 42.2262 0
1 29.003 41.4982 0
1 30.264 42.2262 0
1 31.525 41.4982 0
1 32.786 42.2262 0
1 34.047 41.4982 0
1 35.308 42.2262 0
1 36.569 41.4982 0
1 37.83 42.2262 0
1 39.091 41.4982 0
1 40.352 42.2262 0
1 41.613 41.4982 0
1 42.874 42.2262 0
1 44.135 41.4982 0
1 45.396 42.2262 0
1 46.657 41.4982 0
1 47.918 42.2262 0
1 49.179 41.4982 0
1 50.44 42.2262 0
1 51.701 41.4982 0
1 52.962 42.2262 0
1 54.223 41.4982 0
1 55.484 42.2262 0
1 56.745 41.4982 0
1 58.006 42.2262 0
1 59.267 41.4982 0
1 60.528 42.2262 0
1 61.789 41.4982 0
1 63.05 42.2262 0
1 64.311 41.4982 0
1 65.572 42.2262 0
1 66.833 41.4982 0
1 68.094 42.2262 0
1 69.355 41.4982 0
1 70.616 42.2262 0
1 71.877 41.4982 0
1 73.138 42.2262 0
800
Atoms. Timestep: 50000
1 -0.053327 -0.0455522 -0.186788
1 1.18418 0.690252 -0.242679
1 2.46988 -0.0481687 -0.144384
1 3.73496 0.669526 -0.196447
1 5.02407 -0.0679102 -0.405056
1 6.29262 0.668241 -0.556721
1 7.55069 -0.0780915 -0.620048
1 8.80519 0.650187 -0.645228
1 10.0704 -0.061086 -0.665973
1 11.3393 0.720394 -0.659586
1 12.6136 -0.000662041 -0.546283
1 13.865 0.682783 -0.470716
1 15.079 -0.050966 -0.229579
1 16.3296 0.650888 -0.120951
1 17.5917 -0.0874685 -0.0673485
1 18.9108 0.652638 -0.00596346
1 20.1193 -0.035484 0.0139428
1 21.4034 0.648326 -0.0219095
1 22.6711 -0.0690318 -0.105546
1 23.9291 0.644025 0.0141803
1 25.2178 -0.0968756 -0.106266
1 26.4773 0.652211 -0.0991342
1 27.7408 -0.0655205 -0.342585
1 29.0245 0.68291 -0.370926
1 30.2699 -0.0519936 -0.433351
1 31.5434 0.669831 -0.216796
1 32.8183 -0.0711765 -0.176384
1 34.0666 0.669829 -0.222904
1 35.3519 -0.0529802 -0.145868
1 36.6054 0.675012 -0.213311
1 37.822 -0.0131101 -0.173552
1 39.0888 0.681851 -0.155879
1 40.3643 -0.0518916 -0.228556
1 41.6427 0.658233 -0.184264
1 42.9128 -0.0603398 -0.026436
1 44.1884 0.700355 -0.0269902
1 45.4526 -0.0403191 -0.0400564
1 46.7057 0.676305 -0.126567
1 47.9728 -0.0396507 -0.162743
1 49.2055 0.669345 -0.321704
1 1.21883 2.13489 -0.268912
1 2.48335 2.85571 -0.317789
1 3.7299 2.10914 -0.168875
1 5.03936 2.836 -0.333613
1 6.27036 2.12716 -0.563547
1 7.49409 2.84856 -0.530823
1 8.77379 2.14758 -0.578883
1 10.049 2.86794 -0.512253
1 11.3211 2.15226 -0.524332
1 12.6076 2.85063 -0.457591
1 13.8672 2.11617 -0.467687
1 15.1359 2.86591 -0.284825
1 16.3564 2.13531 -0.161768
1 17.6365 2.84764 0.00826763
1 18.9164 2.12922 0.0246804
1 20.127 2.8621 0.0179841
1 21.4047 2.12571 -0.0329567
1 22.6746 2.86342 -0.0701683
1 23.9445 2.10498 0.0205459
1 25.2124 2.84387 0.0944267
1 26.4814 2.14707 -0.0137095
1 27.7508 2.87554 -0.101207
1 29.006 2.12616 -0.179118
1 30.2871 2.87898 -0.186473
1 31.5688 2.1457 -0.254734
1 32.8119 2.88031 -0.290644
1 34.0715 2.13317 -0.264111
1 35.3054 2.83986 -0.083725
1 36.5687 2.11838 -0.127355
1 37.8054 2.85535 -0.0353722
1 39.0902 2.14073 -0.137246
1 40.3518 2.89573 -0.176955
1 41.645 2.14406 -0.215079
1 42.9083 2.90399 0.0438529
1 44.1827 2.16465 0.0493576
1 45.4157 2.89396 -0.0028003
1 46.7015 2.18524 -0.228379
1 47.9389 2.91057 -0.456103
1 49.2236 2.14365 -0.402682
1 50.4927 2.85273 -0.415078
1 2.47274 4.30613 -0.264629
1 3.72468 5.03345 -0.139296
1 4.97901 4.34255 -0.260289
1 6.23597 5.08697 -0.259284
1 7.49935 4.29963 -0.391705
1 8.78913 5.02089 -0.228148
1 10.0391 4.30316 -0.34134
1 11.3139 5.04497 -0.29447
1 12.5813 4.31235 -0.480431
1 13.855 5.04309 -0.346328
1 15.1405 4.31185 -0.264119
1 16.3898 5.03361 -0.210609
1 17.6581 4.31504 -0.0495609
1 18.8946 5.04085 0.11705
1 20.1458 4.32908 0.0812785
1 21.4332 5.01674 0.0462078
1 22.6758 4.31484 0.0610833
1 23.9729 5.06376 0.0825513
1 25.2289 4.32748 0.0522068
1 26.4736 5.07927 -0.0246093
1 27.7374 4.3363 0.0143638
1 28.9845 5.03547 -0.119566
1 30.2608 4.31172 -0.193358
1 31.5407 5.05166 -0.176512
1 32.8171 4.33821 -0.220903
1 34.0601 5.06511 -0.0803279
1 35.2819 4.28979 0.0707622
1 36.5636 5.02162 0.154012
1 37.8139 4.29189 0.149636
1 39.0569 5.01826 0.21867
1 40.2926 4.34878 0.0660105
1 41.61 5.10069 0.105726
1 42.8885 4.39626 0.0969557
1 44.1614 5.12801 0.0167378
1 45.4135 4.38929 -0.000481865
1 46.6643 5.10907 -0.149403
1 47.9263 4.36814 -0.365115
1 49.2093 5.07501 -0.41733
1 50.4675 4.33194 -0.30889
1 51.7512 5.06485 -0.277348
1 3.72517 6.48092 -0.158435
1 5.00464 7.24345 -0.0665668
1 6.2633 6.53277 -0.161548
1 7.50809 7.24267 0.107187
1 8.80182 6.50025 -0.0470662
1 10.0674 7.2331 -0.057469
1 11.319 6.50355 -0.0563353
1 12.5886 7.22769 -0.0900817
1 13.8311 6.48348 -0.135886
1 15.1003 7.22234 -0.0978054
1 16.3871 6.49104 -0.139056
1 17.6538 7.21576 -0.0733345
1 18.9024 6.49182 0.0846418
1 20.1584 7.21767 -0.012491
1 21.4224 6.46524 0.0879389
1 22.6644 7.25134 0.065935
1 23.9855 6.53441 0.148633
1 25.2254 7.25685 0.0429161
1 26.4836 6.52325 -0.00125
1 27.7287 7.25212 -0.196696
1 28.9772 6.50943 -0.317256
1 30.2925 7.2677 -0.232375
1 31.5395 6.5411 -0.0429943
1 32.7924 7.26319 -0.0725851
1 34.0836 6.49745 -0.00450959
1 35.3093 7.21883 0.146269
1 36.5759 6.50171 0.178396
1 37.8664 7.23475 0.0889972
1 39.0819 6.49566 0.183604
1 40.3605 7.3077 0.0615525
1 41.6412 6.58467 0.131249
1 42.8876 7.31272 -0.0116739
1 44.1445 6.57416 -0.0716697
1 45.415 7.29539 -0.0154571
1 46.6668 6.55425 -0.0916844
1 47.9421 7.28744 -0.182778
1 49.2322 6.49237 -0.308088
1 50.4895 7.19659 -0.0275062
1 51.7566 6.4952 -0.0315351
1 53.032 7.23538 -0.0110599
1 4.99671 8.71157 0.114978
1 6.24826 9.46092 0.184307
1 7.51368 8.73506 0.292576
1 8.78024 9.46251 0.107128
1 10.0548 8.73767 0.0330184
1 11.2906 9.47427 0.00812406
1 12.5571 8.69407 -0.096686
1 13.8073 9.42196 -0.136829
1 15.0893 8.69229 -0.10131
1 16.3863 9.39774 -0.0576005
1 17.6468 8.69075 -0.032049
1 18.8663 9.4163 0.0214694
1 20.1387 8.66893 -0.0258364
1 21.4386 9.39462 -0.00834521
1 22.6772 8.6783 0.0468993
1 23.9647 9.40576 -0.0053193
1 25.2217 8.70123 0.0407962
1 26.5001 9.45137 0.0571322
1 27.735 8.75117 -0.164437
1 29.0236 9.47573 -0.181403
1 30.2394 8.74019 -0.323198
1 31.5186 9.46026 -0.309057
1 32.7676 8.73887 -0.23536
1 34.0504 9.45707 -0.0758021
1 35.3456 8.71241 0.0159739
1 36.577 9.4084 -0.0238499
1 37.8457 8.68593 0.00778946
1 39.101 9.44205 0.0956157
1 40.3565 8.73554 0.133552
1 41.6612 9.50061 0.0975503
1 42.8923 8.75371 0.0460263
1 44.1551 9.47095 -0.0138335
1 45.4343 8.74288 -0.0274108
1 46.6895 9.47213 0.00270526
1 47.9541 8.73928 -0.0979302
1 49.2108 9.45205 0.0581914
1 50.4788 8.70389 0.0512029
1 51.7735 9.42319 0.127412
1 53.0182 8.6857 0.0601406
1 54.2909 9.43468 0.167481
1 6.27197 10.882 0.142204
1 7.53627 11.6222 0.103904
1 8.79556 10.9127 0.167279
1 10.0358 11.6333 0.062975
1 11.3009 10.9202 0.016235
1 12.5732 11.6352 -0.0846802
1 13.8206 10.8466 -0.192778
1 15.0883 11.5512 -0.0552288
1 16.3736 10.8461 -0.0472184
1 17.6316 11.6028 -0.0128916
1 18.8926 10.8824 -0.0320692
1 20.1642 11.5753 -0.0645194
1 21.4242 10.851 0.0132042
1 22.6915 11.5826 0.0351397
1 23.9719 10.8741 -0.0349485
1 25.2337 11.6239 -0.0204047
1 26.5069 10.8644 0.0218317
1 27.7581 11.6022 0.0877564
1 29.0376 10.9197 0.0330741
1 30.2762 11.6681 0.0118962
1 31.5092 10.9485 -0.163555
1 32.789 11.6376 -0.0395815
1 34.0423 10.8878 -0.00970133
1 35.3288 11.5953 -0.0535075
1 36.5799 10.8793 -0.0338383
1 37.8672 11.6445 0.0188747
1 39.0998 10.9092 0.0759011
1 40.3847 11.6541 -0.0475968
1 41.6669 10.9303 0.0371749
1 42.8997 11.658 0.0825963
1 44.1403 10.9295 0.0983032
1 45.4006 11.635 0.100497
1 46.6702 10.9075 0.0573348
1 47.9648 11.6585 0.11436
1 49.2447 10.8962 0.231571
1 50.4856 11.613 0.22501
1 51.7726 10.882 0.116984
1 53.0273 11.6264 0.0557583
1 54.2899 10.8913 0.0512434
1 55.5798 11.6122 0.0411396
1 7.52628 13.0465 -0.0187507
1 8.77967 13.7832 -0.052589
1 10.0682 13.0982 -0.0198744
1 11.2814 13.8433 -0.118398
1 12.5639 13.1004 -0.0832466
1 13.8377 13.8167 -0.201419
1 15.0748 13.0655 -0.0956546
1 16.3822 13.7812 -0.211525
1 17.6338 13.0366 -0.154911
1 18.8861 13.7652 -0.265163
1 20.1351 13.0569 -0.149839
1 21.384 13.8054 -0.00185554
1 22.6829 13.1068 0.0290758
1 23.9154 13.8219 -0.112981
1 25.2248 13.0593 -0.0861286
1 26.4706 13.8118 -0.030548
1 27.7278 13.0578 0.155172
1 28.9853 13.8397 0.159487
1 30.2582 13.1217 0.138943
1 31.5028 13.8512 0.0296147
1 32.8131 13.0832 0.0568925
1 34.0719 13.8101 0.0886639
1 35.3359 13.0588 0.078635
1 36.6139 13.8282 0.0725618
1 37.8724 13.0893 0.0509033
1 39.1206 13.8073 0.132038
1 40.3949 13.1263 -0.0693087
1 41.6494 13.8507 0.0480415
1 42.8982 13.1113 0.102228
1 44.1606 13.811 0.270757
1 45.3763 13.0966 0.162988
1 46.687 13.8232 0.129715
1 47.95 13.1097 0.0673931
1 49.2642 13.8155 0.205254
1 50.4783 13.1073 0.165382
1 51.7622 13.8116 0.144885
1 53.0065 13.0678 0.0945474
1 54.2915 13.7823 0.139779
1 55.5434 13.034 0.0378834
1 56.8329 13.7906 -0.0248772
1 8.78204 15.2398 -0.0221275
1 10.0658 15.9871 -0.116561
1 11.2961 15.2831 -0.128017
1 12.5832 16.0264 -0.123689
1 13.8366 15.2794 -0.222302
1 15.0719 16.0156 -0.226142
1 16.3768 15.2664 -0.259652
1 17.6319 15.9673 -0.340676
1 18.861 15.2246 -0.297681
1 20.1119 15.9386 -0.246389
1 21.3888 15.2375 -0.099914
1 22.6835 15.9825 -0.172258
1 23.9137 15.2667 -0.175975
1 25.185 16.0099 -0.108527
1 26.4404 15.3156 -0.0157584
1 27.7071 16.0301 0.120287
1 29.0099 15.2975 0.103672
1 30.2781 16.0293 0.0393128
1 31.5443 15.2968 0.0253173
1 32.7967 15.9789 0.0532467
1 34.0619 15.2792 -0.0462567
1 35.3365 16.0105 0.131216
1 36.6057 15.2982 0.160176
1 37.8602 16.0139 0.233783
1 39.1451 15.2962 0.257864
1 40.4131 15.99 0.236071
1 41.6683 15.2801 0.184676
1 42.9081 15.9851 0.27428
1 44.161 15.2836 0.396335
1 45.4305 16.0047 0.401706
1 46.6919 15.2711 0.375954
1 48.001 16.0058 0.386674
1 49.2895 15.2836 0.309803
1 50.5393 15.9984 0.220715
1 51.7977 15.223 0.290468
1 53.0491 15.9642 0.177823
1 54.3143 15.2298 0.0764276
1 55.5768 15.9346 -0.0918475
1 56.8234 15.2377 -0.0182114
1 58.0994 15.9747 0.0243585
1 10.0387 17.4724 -0.0981712
1 11.2822 18.1874 -0.0689233
1 12.5528 17.5016 -0.100331
1 13.8358 18.2035 -0.0518383
1 15.0818 17.4658 -0.0989573
1 16.3634 18.2003 -0.240915
1 17.6265 17.4353 -0.335078
1 18.9062 18.1593 -0.420224
1 20.119 17.4204 -0.411082
1 21.4211 18.1805 -0.404652
1 22.6966 17.4657 -0.235803
1 23.9689 18.2275 -0.0738875
1 25.2121 17.4927 -0.0116252
1 26.4651 18.248 0.142084
1 27.7187 17.4688 0.250587
1 28.9769 18.2481 0.245388
1 30.2615 17.5198 0.180202
1 31.5255 18.2308 0.192125
1 32.7975 17.4558 0.0865866
1 34.0579 18.1837 0.157598
1 35.3411 17.4708 0.153924
1 36.6104 18.2186 0.270219
1 37.8883 17.4728 0.292315
1 39.1548 18.1751 0.432704
1 40.4181 17.4592 0.317603
1 41.6286 18.1677 0.417846
1 42.9 17.443 0.350041
1 44.1812 18.1898 0.381441
1 45.4335 17.4708 0.418853
1 46.7167 18.2295 0.568812
1 48.0105 17.4703 0.545605
1 49.2869 18.1706 0.552997
1 50.5407 17.4411 0.273583
1 51.7811 18.1906 0.156344
1 53.0725 17.4413 0.133722
1 54.3232 18.1568 0.0644209
1 55.5795 17.4075 -0.128083
1 56.8468 18.1627 -0.0945786
1 58.1232 17.4182 0.0191947
1 59.3687 18.1856 0.0744047
1 11.2986 19.6376 0.150692
1 12.5907 20.3889 0.183611
1 13.8662 19.6909 -0.0352728
1 15.1115 20.4019 -0.107514
1 16.3992 19.6445 -0.159324
1 17.6288 20.3678 -0.180579
1 18.8799 19.6285 -0.276452
1 20.1514 20.3651 -0.345895
1 21.4328 19.6477 -0.364817
1 22.7213 20.3864 -0.267313
1 23.9712 19.6668 -0.0378798
1 25.2332 20.3798 0.146244
1 26.4819 19.6974 0.123656
1 27.7473 20.4586 0.109672
1 29.0196 19.703 0.244052
1 30.2693 20.4215 0.27764
1 31.5164 19.6571 0.307482
1 32.7866 20.3757 0.194023
1 34.0606 19.6312 0.231164
1 35.3356 20.4241 0.317101
1 36.617 19.6791 0.317296
1 37.8933 20.3731 0.357199
1 39.1355 19.6105 0.462827
1 40.3633 20.3607 0.405485
1 41.6274 19.6596 0.484994
1 42.8647 20.388 0.482254
1 44.174 19.6909 0.492979
1 45.419 20.4258 0.544866
1 46.7112 19.6778 0.626244
1 47.9569 20.3855 0.669751
1 49.2683 19.6531 0.582629
1 50.523 20.3928 0.348405
1 51.7585 19.6546 0.171995
1 52.9783 20.353 0.0587799
1 54.325 19.6263 0.0525975
1 55.5681 20.336 -0.0268976
1 56.8438 19.648 0.000648696
1 58.0942 20.3424 0.098792
1 59.369 19.6027 0.189466
1 60.6348 20.3422 0.235366
1 12.5973 21.8068 0.454137
1 13.8343 22.5081 0.50284
1 15.1338 21.8276 0.171547
1 16.3901 22.582 0.174223
1 17.6153 21.8935 -0.121968
1 18.871 22.5949 -0.1076
1 20.1691 21.8112 -0.206535
1 21.4308 22.5081 -0.242496
1 22.695 21.8058 -0.201105
1 23.9669 22.567 -0.131259
1 25.2145 21.8661 0.0083375
1 26.4764 22.592 0.0561206
1 27.7307 21.9048 -0.0190478
1 28.9963 22.6063 -0.0858549
1 30.2449 21.8855 0.11659
1 31.4941 22.607 0.00496139
1 32.7542 21.8719 0.127282
1 34.0661 22.6021 0.16206
1 35.3469 21.8485 0.285093
1 36.6114 22.5791 0.114235
1 37.917 21.8433 0.161337
1 39.1738 22.6071 0.255447
1 40.377 21.8617 0.463308
1 41.6414 22.5931 0.617321
1 42.8907 21.845 0.492013
1 44.1808 22.6009 0.522002
1 45.452 21.8837 0.582174
1 46.7459 22.6006 0.468541
1 47.9892 21.8317 0.471702
1 49.2296 22.5429 0.317701
1 50.5158 21.7976 0.219323
1 51.7689 22.5353 0.122654
1 53.0119 21.8232 -0.0192251
1 54.2878 22.5353 0.0157482
1 55.5522 21.8011 0.0136552
1 56.8353 22.5222 0.0455626
1 58.0929 21.8169 0.133851
1 59.3523 22.5839 0.289015
1 60.6449 21.8097 0.368612
1 61.8966 22.5247 0.66684
1 13.8381 23.989 0.739049
1 15.1161 24.7401 0.577915
1 16.3656 24.0119 0.415131
1 17.6213 24.7696 0.35542
1 18.9178 24.0407 0.0572706
1 20.1636 24.7649 -0.0376456
1 21.3933 24.0223 -0.291805
1 22.6885 24.7263 -0.166709
1 23.9339 24.0326 -0.179064
1 25.2152 24.8081 -0.223487
1 26.4496 24.0666 -0.0166776
1 27.735 24.7809 -0.184066
1 29.0022 24.0808 -0.241012
1 30.2425 24.84 -0.187129
1 31.5056 24.087 -0.0673493
1 32.7607 24.8101 -0.098154
1 34.025 24.0408 0.0500402
1 35.3348 24.7621 -0.00138404
1 36.6254 24.038 0.0390861
1 37.9174 24.7616 0.131775
1 39.1612 24.0548 0.18813
1 40.3763 24.7912 0.390246
1 41.6503 24.0474 0.506815
1 42.9207 24.7621 0.388401
1 44.1703 24.0686 0.413981
1 45.4511 24.7942 0.354262
1 46.7174 24.0246 0.41134
1 48.0004 24.7439 0.347177
1 49.2433 24.0136 0.327024
1 50.524 24.7302 0.13045
1 51.7542 23.9783 0.0345121
1 53.0304 24.6913 -0.0362909
1 54.2868 23.9604 -0.025822
1 55.5206 24.6928 -0.021612
1 56.8108 23.998 0.0766919
1 58.0718 24.7436 0.241938
1 59.3611 24.0015 0.422764
1 60.6426 24.7513 0.54036
1 61.8989 24.0068 0.767477
1 63.1845 24.748 0.758425
1 15.1264 26.2107 0.553495
1 16.4089 26.9456 0.465643
1 17.6699 26.1955 0.451004
1 18.9235 26.9208 0.290629
1 20.1832 26.1954 0.0703704
1 21.4329 26.9389 0.0444093
1 22.7555 26.2206 -0.133693
1 23.9804 26.9808 -0.229731
1 25.2408 26.2794 -0.262726
1 26.5001 26.9888 -0.216732
1 27.7577 26.2532 -0.27545
1 29.0092 26.9819 -0.394546
1 30.2746 26.283 -0.291833
1 31.5481 26.9946 -0.237051
1 32.8279 26.2749 -0.243818