# Graphene cell with dimension 20 x 20 x 1 and a = 2.522
       800  atoms
         1  atom types

 0.    50.44000000000000  xlo xhi
 0.    43.68232136688707  ylo yhi
 0.     4.11842600000000  zlo zhi
   25.22000000000000     0.00000000000000     0.00000000000000 xy xz yz

Masses

1 12.0112

Atoms

1 1     0.00000000000000     0.00000000000000     0.00000000000000
2 1     1.26100000000000     0.72803868944812     0.00000000000000
3 1     2.52200000000000     0.00000000000000     0.00000000000000
4 1     3.78300000000000     0.72803868944812     0.00000000000000
5 1     5.04400000000000     0.00000000000000     0.00000000000000
6 1     6.30500000000000     0.72803868944812     0.00000000000000
7 1     7.56600000000000     0.00000000000000     0.00000000000000
8 1     8.82700000000000     0.72803868944812     0.00000000000000
9 1    10.08800000000000     0.00000000000000     0.00000000000000
10 1    11.34900000000000     0.72803868944812     0.00000000000000
11 1    12.61000000000000     0.00000000000000     0.00000000000000
12 1    13.87100000000000     0.72803868944812     0.00000000000000
13 1    15.13200000000000     0.00000000000000     0.00000000000000
14 1    16.39300000000000     0.72803868944812     0.00000000000000
15 1    17.65400000000000     0.00000000000000     0.00000000000000
16 1    18.91500000000000     0.72803868944812     0.00000000000000
17 1    20.17600000000000     0.00000000000000     0.00000000000000
18 1    21.43700000000000     0.72803868944812     0.00000000000000
19 1    22.69800000000000     0.00000000000000     0.00000000000000
20 1    23.95900000000000     0.72803868944812     0.00000000000000
21 1    25.22000000000000     0.00000000000000     0.00000000000000
22 1    26.48100000000000     0.72803868944812     0.00000000000000
23 1    27.74200000000000     0.00000000000000     0.00000000000000
24 1    29.00300000000000     0.72803868944812     0.00000000000000
25 1    30.26400000000000     0.00000000000000     0.00000000000000
26 1    31.52500000000000     0.72803868944812     0.00000000000000
27 1    32.78599999999999     0.00000000000000     0.00000000000000
28 1    34.04700000000000     0.72803868944812     0.00000000000000
29 1    35.30800000000000     0.00000000000000     0.00000000000000
30 1    36.56900000000000     0.72803868944812     0.00000000000000
31 1    37.83000000000000     0.00000000000000     0.00000000000000
32 1    39.09099999999999     0.72803868944812     0.00000000000000
33 1    40.35200000000000     0.00000000000000     0.00000000000000
34 1    41.61299999999999     0.72803868944812     0.00000000000000
35 1    42.87400000000000     0.00000000000000     0.00000000000000
36 1    44.13499999999999     0.72803868944812     0.00000000000000
37 1    45.39599999999999     0.00000000000000     0.00000000000000
38 1    46.65699999999999     0.72803868944812     0.00000000000000
39 1    47.91800000000000     0.00000000000000     0.00000000000000
40 1    49.17899999999999     0.72803868944812     0.00000000000000
41 1     1.26100000000000     2.18411606834435     0.00000000000000
42 1     2.52200000000000     2.91215475779247     0.00000000000000
43 1     3.78300000000000     2.18411606834435     0.00000000000000
44 1     5.04400000000000     2.91215475779247     0.00000000000000
45 1     6.30500000000000     2.18411606834435     0.00000000000000
46 1     7.56600000000000     2.91215475779247     0.00000000000000
47 1     8.82700000000000     2.18411606834435     0.00000000000000
48 1    10.08800000000000     2.91215475779247     0.00000000000000
49 1    11.34900000000000     2.18411606834435     0.00000000000000
50 1    12.61000000000000     2.91215475779247     0.00000000000000
51 1    13.87100000000000     2.18411606834435     0.00000000000000
52 1    15.13200000000000     2.91215475779247     0.00000000000000
53 1    16.39300000000000     2.18411606834435     0.00000000000000
54 1    17.65400000000000     2.91215475779247     0.00000000000000
55 1    18.91500000000000     2.18411606834435     0.00000000000000
56 1    20.17600000000000     2.91215475779247     0.00000000000000
57 1    21.43700000000000     2.18411606834435     0.00000000000000
58 1    22.69800000000000     2.91215475779247     0.00000000000000
59 1    23.95900000000000     2.18411606834435     0.00000000000000
60 1    25.22000000000000     2.91215475779247     0.00000000000000
61 1    26.48100000000000     2.18411606834435     0.00000000000000
62 1    27.74200000000000     2.91215475779247     0.00000000000000
63 1    29.00300000000000     2.18411606834435     0.00000000000000
64 1    30.26400000000000     2.91215475779247     0.00000000000000
65 1    31.52500000000000     2.18411606834435     0.00000000000000
66 1    32.78600000000000     2.91215475779247     0.00000000000000
67 1    34.04700000000000     2.18411606834435     0.00000000000000
68 1    35.30800000000000     2.91215475779247     0.00000000000000
69 1    36.56900000000000     2.18411606834435     0.00000000000000
70 1    37.83000000000000     2.91215475779247     0.00000000000000
71 1    39.09100000000000     2.18411606834435     0.00000000000000
72 1    40.35200000000000     2.91215475779247     0.00000000000000
73 1    41.61300000000000     2.18411606834435     0.00000000000000
74 1    42.87400000000000     2.91215475779247     0.00000000000000
75 1    44.13500000000000     2.18411606834435     0.00000000000000
76 1    45.39599999999999     2.91215475779247     0.00000000000000
77 1    46.65700000000000     2.18411606834435     0.00000000000000
78 1    47.91799999999999     2.91215475779247     0.00000000000000
79 1    49.17900000000000     2.18411606834435     0.00000000000000
80 1    50.44000000000000     2.91215475779247     0.00000000000000
81 1     2.52200000000000     4.36823213668871     0.00000000000000
82 1     3.78300000000000     5.09627082613683     0.00000000000000
83 1     5.04400000000000     4.36823213668871     0.00000000000000
84 1     6.30500000000000     5.09627082613683     0.00000000000000
85 1     7.56600000000000     4.36823213668871     0.00000000000000
86 1     8.82700000000000     5.09627082613683     0.00000000000000
87 1    10.08800000000000     4.36823213668871     0.00000000000000
88 1    11.34900000000000     5.09627082613683     0.00000000000000
89 1    12.61000000000000     4.36823213668871     0.00000000000000
90 1    13.87100000000000     5.09627082613683     0.00000000000000
91 1    15.13200000000000     4.36823213668871     0.00000000000000
92 1    16.39300000000000     5.09627082613683     0.00000000000000
93 1    17.65400000000000     4.36823213668871     0.00000000000000
94 1    18.91500000000000     5.09627082613683     0.00000000000000
95 1    20.17600000000000     4.36823213668871     0.00000000000000
96 1    21.43700000000000     5.09627082613683     0.00000000000000
97 1    22.69800000000000     4.36823213668871     0.00000000000000
98 1    23.95900000000000     5.09627082613683     0.00000000000000
99 1    25.22000000000000     4.36823213668871     0.00000000000000
100 1    26.48100000000000     5.09627082613683     0.00000000000000
101 1    27.74200000000000     4.36823213668871     0.00000000000000
102 1    29.00300000000000     5.09627082613683     0.00000000000000
103 1    30.26400000000000     4.36823213668871     0.00000000000000
104 1    31.52500000000000     5.09627082613683     0.00000000000000
105 1    32.78599999999999     4.36823213668871     0.00000000000000
106 1    34.04700000000000     5.09627082613683     0.00000000000000
107 1    35.30799999999999     4.36823213668871     0.00000000000000
108 1    36.56900000000000     5.09627082613683     0.00000000000000
109 1    37.83000000000000     4.36823213668871     0.00000000000000
110 1    39.09099999999999     5.09627082613683     0.00000000000000
111 1    40.35200000000000     4.36823213668871     0.00000000000000
112 1    41.61299999999999     5.09627082613683     0.00000000000000
113 1    42.87400000000000     4.36823213668871     0.00000000000000
114 1    44.13499999999999     5.09627082613683     0.00000000000000
115 1    45.39599999999999     4.36823213668871     0.00000000000000
116 1    46.65699999999999     5.09627082613683     0.00000000000000
117 1    47.91799999999999     4.36823213668871     0.00000000000000
118 1    49.17899999999999     5.09627082613683     0.00000000000000
119 1    50.44000000000000     4.36823213668871     0.00000000000000
120 1    51.70099999999999     5.09627082613683     0.00000000000000
121 1     3.78300000000000     6.55234820503306     0.00000000000000
122 1     5.04400000000000     7.28038689448118     0.00000000000000
123 1     6.30500000000000     6.55234820503306     0.00000000000000
124 1     7.56600000000000     7.28038689448118     0.00000000000000
125 1     8.82700000000000     6.55234820503306     0.00000000000000
126 1    10.08800000000000     7.28038689448118     0.00000000000000
127 1    11.34900000000000     6.55234820503306     0.00000000000000
128 1    12.61000000000000     7.28038689448118     0.00000000000000
129 1    13.87100000000000     6.55234820503306     0.00000000000000
130 1    15.13200000000000     7.28038689448118     0.00000000000000
131 1    16.39300000000000     6.55234820503306     0.00000000000000
132 1    17.65400000000000     7.28038689448118     0.00000000000000
133 1    18.91500000000000     6.55234820503306     0.00000000000000
134 1    20.17600000000000     7.28038689448118     0.00000000000000
135 1    21.43700000000000     6.55234820503306     0.00000000000000
136 1    22.69800000000000     7.28038689448118     0.00000000000000
137 1    23.95900000000000     6.55234820503306     0.00000000000000
138 1    25.22000000000000     7.28038689448118     0.00000000000000
139 1    26.48099999999999     6.55234820503306     0.00000000000000
140 1    27.74200000000000     7.28038689448118     0.00000000000000
141 1    29.00300000000000     6.55234820503306     0.00000000000000
142 1    30.26400000000000     7.28038689448118     0.00000000000000
143 1    31.52500000000000     6.55234820503306     0.00000000000000
144 1    32.78600000000000     7.28038689448118     0.00000000000000
145 1    34.04700000000000     6.55234820503306     0.00000000000000
146 1    35.30800000000000     7.28038689448118     0.00000000000000
147 1    36.56900000000000     6.55234820503306     0.00000000000000
148 1    37.83000000000000     7.28038689448118     0.00000000000000
149 1    39.09100000000000     6.55234820503306     0.00000000000000
150 1    40.35200000000000     7.28038689448118     0.00000000000000
151 1    41.61300000000000     6.55234820503306     0.00000000000000
152 1    42.87400000000000     7.28038689448118     0.00000000000000
153 1    44.13500000000000     6.55234820503306     0.00000000000000
154 1    45.39599999999999     7.28038689448118     0.00000000000000
155 1    46.65700000000000     6.55234820503306     0.00000000000000
156 1    47.91799999999999     7.28038689448118     0.00000000000000
157 1    49.17899999999999     6.55234820503306     0.00000000000000
158 1    50.43999999999999     7.28038689448118     0.00000000000000
159 1    51.70100000000000     6.55234820503306     0.00000000000000
160 1    52.96200000000000     7.28038689448118     0.00000000000000
161 1     5.04400000000000     8.73646427337741     0.00000000000000
162 1     6.30500000000000     9.46450296282553     0.00000000000000
163 1     7.56600000000000     8.73646427337741     0.00000000000000
164 1     8.82700000000000     9.46450296282553     0.00000000000000
165 1    10.08800000000000     8.73646427337741     0.00000000000000
166 1    11.34900000000000     9.46450296282553     0.00000000000000
167 1    12.61000000000000     8.73646427337741     0.00000000000000
168 1    13.87100000000000     9.46450296282553     0.00000000000000
169 1    15.13200000000000     8.73646427337741     0.00000000000000
170 1    16.39300000000000     9.46450296282553     0.00000000000000
171 1    17.65400000000000     8.73646427337741     0.00000000000000
172 1    18.91500000000000     9.46450296282553     0.00000000000000
173 1    20.17600000000000     8.73646427337741     0.00000000000000
174 1    21.43700000000000     9.46450296282553     0.00000000000000
175 1    22.69800000000000     8.73646427337741     0.00000000000000
176 1    23.95900000000000     9.46450296282553     0.00000000000000
177 1    25.22000000000000     8.73646427337741     0.00000000000000
178 1    26.48100000000000     9.46450296282553     0.00000000000000
179 1    27.74200000000000     8.73646427337741     0.00000000000000
180 1    29.00300000000000     9.46450296282553     0.00000000000000
181 1    30.26400000000000     8.73646427337741     0.00000000000000
182 1    31.52500000000000     9.46450296282553     0.00000000000000
183 1    32.78599999999999     8.73646427337741     0.00000000000000
184 1    34.04700000000000     9.46450296282553     0.00000000000000
185 1    35.30799999999999     8.73646427337741     0.00000000000000
186 1    36.56900000000000     9.46450296282553     0.00000000000000
187 1    37.82999999999999     8.73646427337741     0.00000000000000
188 1    39.09099999999999     9.46450296282553     0.00000000000000
189 1    40.35200000000000     8.73646427337741     0.00000000000000
190 1    41.61300000000000     9.46450296282553     0.00000000000000
191 1    42.87400000000000     8.73646427337741     0.00000000000000
192 1    44.13499999999999     9.46450296282553     0.00000000000000
193 1    45.39599999999999     8.73646427337741     0.00000000000000
194 1    46.65700000000000     9.46450296282553     0.00000000000000
195 1    47.91799999999999     8.73646427337741     0.00000000000000
196 1    49.17899999999999     9.46450296282553     0.00000000000000
197 1    50.43999999999999     8.73646427337741     0.00000000000000
198 1    51.70099999999999     9.46450296282553     0.00000000000000
199 1    52.96200000000000     8.73646427337741     0.00000000000000
200 1    54.22300000000000     9.46450296282553     0.00000000000000
201 1     6.30500000000000    10.92058034172177     0.00000000000000
202 1     7.56600000000000    11.64861903116989     0.00000000000000
203 1     8.82700000000000    10.92058034172177     0.00000000000000
204 1    10.08800000000000    11.64861903116989     0.00000000000000
205 1    11.34900000000000    10.92058034172177     0.00000000000000
206 1    12.61000000000000    11.64861903116989     0.00000000000000
207 1    13.87100000000000    10.92058034172177     0.00000000000000
208 1    15.13200000000000    11.64861903116989     0.00000000000000
209 1    16.39300000000000    10.92058034172177     0.00000000000000
210 1    17.65400000000000    11.64861903116989     0.00000000000000
211 1    18.91500000000000    10.92058034172177     0.00000000000000
212 1    20.17600000000000    11.64861903116989     0.00000000000000
213 1    21.43700000000000    10.92058034172177     0.00000000000000
214 1    22.69800000000000    11.64861903116989     0.00000000000000
215 1    23.95900000000000    10.92058034172177     0.00000000000000
216 1    25.22000000000000    11.64861903116989     0.00000000000000
217 1    26.48100000000000    10.92058034172177     0.00000000000000
218 1    27.74200000000000    11.64861903116989     0.00000000000000
219 1    29.00300000000000    10.92058034172177     0.00000000000000
220 1    30.26400000000000    11.64861903116989     0.00000000000000
221 1    31.52500000000000    10.92058034172177     0.00000000000000
222 1    32.78600000000000    11.64861903116989     0.00000000000000
223 1    34.04700000000000    10.92058034172177     0.00000000000000
224 1    35.30800000000000    11.64861903116989     0.00000000000000
225 1    36.56900000000000    10.92058034172177     0.00000000000000
226 1    37.83000000000000    11.64861903116989     0.00000000000000
227 1    39.09099999999999    10.92058034172177     0.00000000000000
228 1    40.35200000000000    11.64861903116989     0.00000000000000
229 1    41.61300000000000    10.92058034172177     0.00000000000000
230 1    42.87400000000000    11.64861903116989     0.00000000000000
231 1    44.13500000000000    10.92058034172177     0.00000000000000
232 1    45.39599999999999    11.64861903116989     0.00000000000000
233 1    46.65700000000000    10.92058034172177     0.00000000000000
234 1    47.91799999999999    11.64861903116989     0.00000000000000
235 1    49.17899999999999    10.92058034172177     0.00000000000000
236 1    50.43999999999999    11.64861903116989     0.00000000000000
237 1    51.70099999999999    10.92058034172177     0.00000000000000
238 1    52.96199999999999    11.64861903116989     0.00000000000000
239 1    54.22300000000000    10.92058034172177     0.00000000000000
240 1    55.48399999999999    11.64861903116989     0.00000000000000
241 1     7.56600000000000    13.10469641006612     0.00000000000000
242 1     8.82700000000000    13.83273509951424     0.00000000000000
243 1    10.08800000000000    13.10469641006612     0.00000000000000
244 1    11.34900000000000    13.83273509951424     0.00000000000000
245 1    12.61000000000000    13.10469641006612     0.00000000000000
246 1    13.87100000000000    13.83273509951424     0.00000000000000
247 1    15.13200000000000    13.10469641006612     0.00000000000000
248 1    16.39300000000000    13.83273509951424     0.00000000000000
249 1    17.65400000000000    13.10469641006612     0.00000000000000
250 1    18.91500000000000    13.83273509951424     0.00000000000000
251 1    20.17600000000000    13.10469641006612     0.00000000000000
252 1    21.43700000000000    13.83273509951424     0.00000000000000
253 1    22.69800000000000    13.10469641006612     0.00000000000000
254 1    23.95900000000000    13.83273509951424     0.00000000000000
255 1    25.22000000000000    13.10469641006612     0.00000000000000
256 1    26.48099999999999    13.83273509951424     0.00000000000000
257 1    27.74200000000000    13.10469641006612     0.00000000000000
258 1    29.00300000000000    13.83273509951424     0.00000000000000
259 1    30.26400000000000    13.10469641006612     0.00000000000000
260 1    31.52500000000000    13.83273509951424     0.00000000000000
261 1    32.78600000000000    13.10469641006612     0.00000000000000
262 1    34.04700000000000    13.83273509951424     0.00000000000000
263 1    35.30799999999999    13.10469641006612     0.00000000000000
264 1    36.56900000000000    13.83273509951424     0.00000000000000
265 1    37.83000000000000    13.10469641006612     0.00000000000000
266 1    39.09100000000000    13.83273509951424     0.00000000000000
267 1    40.35199999999999    13.10469641006612     0.00000000000000
268 1    41.61300000000000    13.83273509951424     0.00000000000000
269 1    42.87400000000000    13.10469641006612     0.00000000000000
270 1    44.13500000000000    13.83273509951424     0.00000000000000
271 1    45.39600000000000    13.10469641006612     0.00000000000000
272 1    46.65700000000000    13.83273509951424     0.00000000000000
273 1    47.91799999999999    13.10469641006612     0.00000000000000
274 1    49.17899999999999    13.83273509951424     0.00000000000000
275 1    50.44000000000000    13.10469641006612     0.00000000000000
276 1    51.70099999999999    13.83273509951424     0.00000000000000
277 1    52.96199999999999    13.10469641006612     0.00000000000000
278 1    54.22299999999999    13.83273509951424     0.00000000000000
279 1    55.48399999999999    13.10469641006612     0.00000000000000
280 1    56.74500000000000    13.83273509951424     0.00000000000000
281 1     8.82700000000000    15.28881247841048     0.00000000000000
282 1    10.08800000000000    16.01685116785859     0.00000000000000
283 1    11.34900000000000    15.28881247841048     0.00000000000000
284 1    12.61000000000000    16.01685116785859     0.00000000000000
285 1    13.87100000000000    15.28881247841048     0.00000000000000
286 1    15.13200000000000    16.01685116785859     0.00000000000000
287 1    16.39300000000000    15.28881247841048     0.00000000000000
288 1    17.65400000000000    16.01685116785859     0.00000000000000
289 1    18.91500000000000    15.28881247841048     0.00000000000000
290 1    20.17599999999999    16.01685116785859     0.00000000000000
291 1    21.43700000000000    15.28881247841048     0.00000000000000
292 1    22.69800000000000    16.01685116785859     0.00000000000000
293 1    23.95900000000000    15.28881247841048     0.00000000000000
294 1    25.22000000000000    16.01685116785859     0.00000000000000
295 1    26.48100000000000    15.28881247841048     0.00000000000000
296 1    27.74200000000000    16.01685116785859     0.00000000000000
297 1    29.00300000000000    15.28881247841048     0.00000000000000
298 1    30.26400000000000    16.01685116785859     0.00000000000000
299 1    31.52500000000000    15.28881247841048     0.00000000000000
300 1    32.78600000000000    16.01685116785859     0.00000000000000
301 1    34.04700000000000    15.28881247841048     0.00000000000000
302 1    35.30800000000000    16.01685116785859     0.00000000000000
303 1    36.56900000000000    15.28881247841048     0.00000000000000
304 1    37.83000000000000    16.01685116785859     0.00000000000000
305 1    39.09099999999999    15.28881247841048     0.00000000000000
306 1    40.35200000000000    16.01685116785859     0.00000000000000
307 1    41.61299999999999    15.28881247841048     0.00000000000000
308 1    42.87400000000000    16.01685116785859     0.00000000000000
309 1    44.13500000000000    15.28881247841048     0.00000000000000
310 1    45.39599999999999    16.01685116785859     0.00000000000000
311 1    46.65700000000000    15.28881247841048     0.00000000000000
312 1    47.91799999999999    16.01685116785859     0.00000000000000
313 1    49.17899999999999    15.28881247841048     0.00000000000000
314 1    50.43999999999999    16.01685116785859     0.00000000000000
315 1    51.70099999999999    15.28881247841048     0.00000000000000
316 1    52.96199999999999    16.01685116785859     0.00000000000000
317 1    54.22299999999999    15.28881247841048     0.00000000000000
318 1    55.48399999999999    16.01685116785859     0.00000000000000
319 1    56.74500000000000    15.28881247841048     0.00000000000000
320 1    58.00599999999999    16.01685116785859     0.00000000000000
321 1    10.08800000000000    17.47292854675483     0.00000000000000
322 1    11.34900000000000    18.20096723620295     0.00000000000000
323 1    12.61000000000000    17.47292854675483     0.00000000000000
324 1    13.87100000000000    18.20096723620295     0.00000000000000
325 1    15.13200000000000    17.47292854675483     0.00000000000000
326 1    16.39300000000000    18.20096723620295     0.00000000000000
327 1    17.65400000000000    17.47292854675483     0.00000000000000
328 1    18.91500000000000    18.20096723620295     0.00000000000000
329 1    20.17600000000000    17.47292854675483     0.00000000000000
330 1    21.43700000000000    18.20096723620295     0.00000000000000
331 1    22.69800000000000    17.47292854675483     0.00000000000000
332 1    23.95900000000000    18.20096723620295     0.00000000000000
333 1    25.22000000000000    17.47292854675483     0.00000000000000
334 1    26.48100000000000    18.20096723620295     0.00000000000000
335 1    27.74200000000000    17.47292854675483     0.00000000000000
336 1    29.00300000000000    18.20096723620295     0.00000000000000
337 1    30.26400000000000    17.47292854675483     0.00000000000000
338 1    31.52500000000000    18.20096723620295     0.00000000000000
339 1    32.78599999999999    17.47292854675483     0.00000000000000
340 1    34.04700000000000    18.20096723620295     0.00000000000000
341 1    35.30800000000000    17.47292854675483     0.00000000000000
342 1    36.56900000000000    18.20096723620295     0.00000000000000
343 1    37.83000000000000    17.47292854675483     0.00000000000000
344 1    39.09099999999999    18.20096723620295     0.00000000000000
345 1    40.35200000000000    17.47292854675483     0.00000000000000
346 1    41.61300000000000    18.20096723620295     0.00000000000000
347 1    42.87400000000000    17.47292854675483     0.00000000000000
348 1    44.13500000000000    18.20096723620295     0.00000000000000
349 1    45.39600000000000    17.47292854675483     0.00000000000000
350 1    46.65700000000000    18.20096723620295     0.00000000000000
351 1    47.91800000000000    17.47292854675483     0.00000000000000
352 1    49.17899999999999    18.20096723620295     0.00000000000000
353 1    50.44000000000000    17.47292854675483     0.00000000000000
354 1    51.70099999999999    18.20096723620295     0.00000000000000
355 1    52.96200000000000    17.47292854675483     0.00000000000000
356 1    54.22299999999999    18.20096723620295     0.00000000000000
357 1    55.48399999999999    17.47292854675483     0.00000000000000
358 1    56.74499999999999    18.20096723620295     0.00000000000000
359 1    58.00600000000000    17.47292854675483     0.00000000000000
360 1    59.26700000000000    18.20096723620295     0.00000000000000
361 1    11.34900000000000    19.65704461509918     0.00000000000000
362 1    12.61000000000000    20.38508330454730     0.00000000000000
363 1    13.87100000000000    19.65704461509918     0.00000000000000
364 1    15.13200000000000    20.38508330454730     0.00000000000000
365 1    16.39300000000000    19.65704461509918     0.00000000000000
366 1    17.65400000000000    20.38508330454730     0.00000000000000
367 1    18.91500000000000    19.65704461509918     0.00000000000000
368 1    20.17600000000000    20.38508330454730     0.00000000000000
369 1    21.43700000000000    19.65704461509918     0.00000000000000
370 1    22.69800000000000    20.38508330454730     0.00000000000000
371 1    23.95900000000000    19.65704461509918     0.00000000000000
372 1    25.22000000000000    20.38508330454730     0.00000000000000
373 1    26.48099999999999    19.65704461509918     0.00000000000000
374 1    27.74200000000000    20.38508330454730     0.00000000000000
375 1    29.00300000000000    19.65704461509918     0.00000000000000
376 1    30.26400000000000    20.38508330454730     0.00000000000000
377 1    31.52500000000000    19.65704461509918     0.00000000000000
378 1    32.78600000000000    20.38508330454730     0.00000000000000
379 1    34.04700000000000    19.65704461509918     0.00000000000000
380 1    35.30800000000000    20.38508330454730     0.00000000000000
381 1    36.56900000000000    19.65704461509918     0.00000000000000
382 1    37.83000000000000    20.38508330454730     0.00000000000000
383 1    39.09099999999999    19.65704461509918     0.00000000000000
384 1    40.35200000000000    20.38508330454730     0.00000000000000
385 1    41.61299999999999    19.65704461509918     0.00000000000000
386 1    42.87400000000000    20.38508330454730     0.00000000000000
387 1    44.13499999999999    19.65704461509918     0.00000000000000
388 1    45.39600000000000    20.38508330454730     0.00000000000000
389 1    46.65700000000000    19.65704461509918     0.00000000000000
390 1    47.91800000000000    20.38508330454730     0.00000000000000
391 1    49.17899999999999    19.65704461509918     0.00000000000000
392 1    50.44000000000000    20.38508330454730     0.00000000000000
393 1    51.70099999999999    19.65704461509918     0.00000000000000
394 1    52.96200000000000    20.38508330454730     0.00000000000000
395 1    54.22299999999999    19.65704461509918     0.00000000000000
396 1    55.48399999999999    20.38508330454730     0.00000000000000
397 1    56.74499999999999    19.65704461509918     0.00000000000000
398 1    58.00599999999999    20.38508330454730     0.00000000000000
399 1    59.26700000000000    19.65704461509918     0.00000000000000
400 1    60.52800000000000    20.38508330454730     0.00000000000000
401 1    12.61000000000000    21.84116068344354     0.00000000000000
402 1    13.87100000000000    22.56919937289166     0.00000000000000
403 1    15.13200000000000    21.84116068344354     0.00000000000000
404 1    16.39300000000000    22.56919937289166     0.00000000000000
405 1    17.65400000000000    21.84116068344354     0.00000000000000
406 1    18.91500000000000    22.56919937289166     0.00000000000000
407 1    20.17600000000000    21.84116068344354     0.00000000000000
408 1    21.43700000000000    22.56919937289166     0.00000000000000
409 1    22.69800000000000    21.84116068344354     0.00000000000000
410 1    23.95900000000000    22.56919937289166     0.00000000000000
411 1    25.22000000000000    21.84116068344354     0.00000000000000
412 1    26.48100000000000    22.56919937289166     0.00000000000000
413 1    27.74200000000000    21.84116068344354     0.00000000000000
414 1    29.00300000000000    22.56919937289166     0.00000000000000
415 1    30.26400000000000    21.84116068344354     0.00000000000000
416 1    31.52500000000000    22.56919937289166     0.00000000000000
417 1    32.78600000000000    21.84116068344354     0.00000000000000
418 1    34.04700000000000    22.56919937289166     0.00000000000000
419 1    35.30799999999999    21.84116068344354     0.00000000000000
420 1    36.56900000000000    22.56919937289166     0.00000000000000
421 1    37.83000000000000    21.84116068344354     0.00000000000000
422 1    39.09100000000000    22.56919937289166     0.00000000000000
423 1    40.35200000000000    21.84116068344354     0.00000000000000
424 1    41.61300000000000    22.56919937289166     0.00000000000000
425 1    42.87400000000000    21.84116068344354     0.00000000000000
426 1    44.13500000000000    22.56919937289166     0.00000000000000
427 1    45.39599999999999    21.84116068344354     0.00000000000000
428 1    46.65700000000000    22.56919937289166     0.00000000000000
429 1    47.91800000000000    21.84116068344354     0.00000000000000
430 1    49.17899999999999    22.56919937289166     0.00000000000000
431 1    50.44000000000000    21.84116068344354     0.00000000000000
432 1    51.70099999999999    22.56919937289166     0.00000000000000