800
Atoms. Timestep: 0
1 3.09562e-16 5.36177e-16 0
1 1.261 0.728039 0
1 2.522 9.57751e-16 0
1 3.783 0.728039 0
1 5.044 9.98681e-16 0
1 6.305 0.728039 0
1 7.566 1.17059e-15 0
1 8.827 0.728039 0
1 10.088 1.08873e-15 0
1 11.349 0.728039 0
1 12.61 1.66174e-15 0
1 13.871 0.728039 0
1 15.132 9.0045e-16 0
1 16.393 0.728039 0
1 17.654 1.36705e-15 0
1 18.915 0.728039 0
1 20.176 7.77661e-16 0
1 21.437 0.728039 0
1 22.698 1.55532e-15 0
1 23.959 0.728039 0
1 25.22 1.03142e-15 0
1 26.481 0.728039 0
1 27.742 9.65937e-16 0
1 29.003 0.728039 0
1 30.264 9.0045e-16 0
1 31.525 0.728039 0
1 32.786 1.03142e-15 0
1 34.047 0.728039 0
1 35.308 7.28546e-16 0
1 36.569 0.728039 0
1 37.83 1.14603e-15 0
1 39.091 0.728039 0
1 40.352 7.12174e-16 0
1 41.613 0.728039 0
1 42.874 2.2102e-15 0
1 44.135 0.728039 0
1 45.396 3.43808e-16 0
1 46.657 0.728039 0
1 47.918 1.22789e-15 0
1 49.179 0.728039 0
1 1.261 2.18412 0
1 2.522 2.91215 0
1 3.783 2.18412 0
1 5.044 2.91215 0
1 6.305 2.18412 0
1 7.566 2.91215 0
1 8.827 2.18412 0
1 10.088 2.91215 0
1 11.349 2.18412 0
1 12.61 2.91215 0
1 13.871 2.18412 0
1 15.132 2.91215 0
1 16.393 2.18412 0
1 17.654 2.91215 0
1 18.915 2.18412 0
1 20.176 2.91215 0
1 21.437 2.18412 0
1 22.698 2.91215 0
1 23.959 2.18412 0
1 25.22 2.91215 0
1 26.481 2.18412 0
1 27.742 2.91215 0
1 29.003 2.18412 0
1 30.264 2.91215 0
1 31.525 2.18412 0
1 32.786 2.91215 0
1 34.047 2.18412 0
1 35.308 2.91215 0
1 36.569 2.18412 0
1 37.83 2.91215 0
1 39.091 2.18412 0
1 40.352 2.91215 0
1 41.613 2.18412 0
1 42.874 2.91215 0
1 44.135 2.18412 0
1 45.396 2.91215 0
1 46.657 2.18412 0
1 47.918 2.91215 0
1 49.179 2.18412 0
1 50.44 2.91215 0
1 2.522 4.36823 0
1 3.783 5.09627 0
1 5.044 4.36823 0
1 6.305 5.09627 0
1 7.566 4.36823 0
1 8.827 5.09627 0
1 10.088 4.36823 0
1 11.349 5.09627 0
1 12.61 4.36823 0
1 13.871 5.09627 0
1 15.132 4.36823 0
1 16.393 5.09627 0
1 17.654 4.36823 0
1 18.915 5.09627 0
1 20.176 4.36823 0
1 21.437 5.09627 0
1 22.698 4.36823 0
1 23.959 5.09627 0
1 25.22 4.36823 0
1 26.481 5.09627 0
1 27.742 4.36823 0
1 29.003 5.09627 0
1 30.264 4.36823 0
1 31.525 5.09627 0
1 32.786 4.36823 0
1 34.047 5.09627 0
1 35.308 4.36823 0
1 36.569 5.09627 0
1 37.83 4.36823 0
1 39.091 5.09627 0
1 40.352 4.36823 0
1 41.613 5.09627 0
1 42.874 4.36823 0
1 44.135 5.09627 0
1 45.396 4.36823 0
1 46.657 5.09627 0
1 47.918 4.36823 0
1 49.179 5.09627 0
1 50.44 4.36823 0
1 51.701 5.09627 0
1 3.783 6.55235 0
1 5.044 7.28039 0
1 6.305 6.55235 0
1 7.566 7.28039 0
1 8.827 6.55235 0
1 10.088 7.28039 0
1 11.349 6.55235 0
1 12.61 7.28039 0
1 13.871 6.55235 0
1 15.132 7.28039 0
1 16.393 6.55235 0
1 17.654 7.28039 0
1 18.915 6.55235 0
1 20.176 7.28039 0
1 21.437 6.55235 0
1 22.698 7.28039 0
1 23.959 6.55235 0
1 25.22 7.28039 0
1 26.481 6.55235 0
1 27.742 7.28039 0
1 29.003 6.55235 0
1 30.264 7.28039 0
1 31.525 6.55235 0
1 32.786 7.28039 0
1 34.047 6.55235 0
1 35.308 7.28039 0
1 36.569 6.55235 0
1 37.83 7.28039 0
1 39.091 6.55235 0
1 40.352 7.28039 0
1 41.613 6.55235 0
1 42.874 7.28039 0
1 44.135 6.55235 0
1 45.396 7.28039 0
1 46.657 6.55235 0
1 47.918 7.28039 0
1 49.179 6.55235 0
1 50.44 7.28039 0
1 51.701 6.55235 0
1 52.962 7.28039 0
1 5.044 8.73646 0
1 6.305 9.4645 0
1 7.566 8.73646 0
1 8.827 9.4645 0
1 10.088 8.73646 0
1 11.349 9.4645 0
1 12.61 8.73646 0
1 13.871 9.4645 0
1 15.132 8.73646 0
1 16.393 9.4645 0
1 17.654 8.73646 0
1 18.915 9.4645 0
1 20.176 8.73646 0
1 21.437 9.4645 0
1 22.698 8.73646 0
1 23.959 9.4645 0
1 25.22 8.73646 0
1 26.481 9.4645 0
1 27.742 8.73646 0
1 29.003 9.4645 0
1 30.264 8.73646 0
1 31.525 9.4645 0
1 32.786 8.73646 0
1 34.047 9.4645 0
1 35.308 8.73646 0
1 36.569 9.4645 0
1 37.83 8.73646 0
1 39.091 9.4645 0
1 40.352 8.73646 0
1 41.613 9.4645 0
1 42.874 8.73646 0
1 44.135 9.4645 0
1 45.396 8.73646 0
1 46.657 9.4645 0
1 47.918 8.73646 0
1 49.179 9.4645 0
1 50.44 8.73646 0
1 51.701 9.4645 0
1 52.962 8.73646 0
1 54.223 9.4645 0
1 6.305 10.9206 0
1 7.566 11.6486 0
1 8.827 10.9206 0
1 10.088 11.6486 0
1 11.349 10.9206 0
1 12.61 11.6486 0
1 13.871 10.9206 0
1 15.132 11.6486 0
1 16.393 10.9206 0
1 17.654 11.6486 0
1 18.915 10.9206 0
1 20.176 11.6486 0
1 21.437 10.9206 0
1 22.698 11.6486 0
1 23.959 10.9206 0
1 25.22 11.6486 0
1 26.481 10.9206 0
1 27.742 11.6486 0
1 29.003 10.9206 0
1 30.264 11.6486 0
1 31.525 10.9206 0
1 32.786 11.6486 0
1 34.047 10.9206 0
1 35.308 11.6486 0
1 36.569 10.9206 0
1 37.83 11.6486 0
1 39.091 10.9206 0
1 40.352 11.6486 0
1 41.613 10.9206 0
1 42.874 11.6486 0
1 44.135 10.9206 0
1 45.396 11.6486 0
1 46.657 10.9206 0
1 47.918 11.6486 0
1 49.179 10.9206 0
1 50.44 11.6486 0
1 51.701 10.9206 0
1 52.962 11.6486 0
1 54.223 10.9206 0
1 55.484 11.6486 0
1 7.566 13.1047 0
1 8.827 13.8327 0
1 10.088 13.1047 0
1 11.349 13.8327 0
1 12.61 13.1047 0
1 13.871 13.8327 0
1 15.132 13.1047 0
1 16.393 13.8327 0
1 17.654 13.1047 0
1 18.915 13.8327 0
1 20.176 13.1047 0
1 21.437 13.8327 0
1 22.698 13.1047 0
1 23.959 13.8327 0
1 25.22 13.1047 0
1 26.481 13.8327 0
1 27.742 13.1047 0
1 29.003 13.8327 0
1 30.264 13.1047 0
1 31.525 13.8327 0
1 32.786 13.1047 0
1 34.047 13.8327 0
1 35.308 13.1047 0
1 36.569 13.8327 0
1 37.83 13.1047 0
1 39.091 13.8327 0
1 40.352 13.1047 0
1 41.613 13.8327 0
1 42.874 13.1047 0
1 44.135 13.8327 0
1 45.396 13.1047 0
1 46.657 13.8327 0
1 47.918 13.1047 0
1 49.179 13.8327 0
1 50.44 13.1047 0
1 51.701 13.8327 0
1 52.962 13.1047 0
1 54.223 13.8327 0
1 55.484 13.1047 0
1 56.745 13.8327 0
1 8.827 15.2888 0
1 10.088 16.0169 0
1 11.349 15.2888 0
1 12.61 16.0169 0
1 13.871 15.2888 0
1 15.132 16.0169 0
1 16.393 15.2888 0
1 17.654 16.0169 0
1 18.915 15.2888 0
1 20.176 16.0169 0
1 21.437 15.2888 0
1 22.698 16.0169 0
1 23.959 15.2888 0
1 25.22 16.0169 0
1 26.481 15.2888 0
1 27.742 16.0169 0
1 29.003 15.2888 0
1 30.264 16.0169 0
1 31.525 15.2888 0
1 32.786 16.0169 0
1 34.047 15.2888 0
1 35.308 16.0169 0
1 36.569 15.2888 0
1 37.83 16.0169 0
1 39.091 15.2888 0
1 40.352 16.0169 0
1 41.613 15.2888 0
1 42.874 16.0169 0
1 44.135 15.2888 0
1 45.396 16.0169 0
1 46.657 15.2888 0
1 47.918 16.0169 0
1 49.179 15.2888 0
1 50.44 16.0169 0
1 51.701 15.2888 0
1 52.962 16.0169 0
1 54.223 15.2888 0
1 55.484 16.0169 0
1 56.745 15.2888 0
1 58.006 16.0169 0
1 10.088 17.4729 0
1 11.349 18.201 0
1 12.61 17.4729 0
1 13.871 18.201 0
1 15.132 17.4729 0
1 16.393 18.201 0
1 17.654 17.4729 0
1 18.915 18.201 0
1 20.176 17.4729 0
1 21.437 18.201 0
1 22.698 17.4729 0
1 23.959 18.201 0
1 25.22 17.4729 0
1 26.481 18.201 0
1 27.742 17.4729 0
1 29.003 18.201 0
1 30.264 17.4729 0
1 31.525 18.201 0
1 32.786 17.4729 0
1 34.047 18.201 0
1 35.308 17.4729 0
1 36.569 18.201 0
1 37.83 17.4729 0
1 39.091 18.201 0
1 40.352 17.4729 0
1 41.613 18.201 0
1 42.874 17.4729 0
1 44.135 18.201 0
1 45.396 17.4729 0
1 46.657 18.201 0
1 47.918 17.4729 0
1 49.179 18.201 0
1 50.44 17.4729 0
1 51.701 18.201 0
1 52.962 17.4729 0
1 54.223 18.201 0
1 55.484 17.4729 0
1 56.745 18.201 0
1 58.006 17.4729 0
1 59.267 18.201 0
1 11.349 19.657 0
1 12.61 20.3851 0
1 13.871 19.657 0
1 15.132 20.3851 0
1 16.393 19.657 0
1 17.654 20.3851 0
1 18.915 19.657 0
1 20.176 20.3851 0
1 21.437 19.657 0
1 22.698 20.3851 0
1 23.959 19.657 0
1 25.22 20.3851 0
1 26.481 19.657 0
1 27.742 20.3851 0
1 29.003 19.657 0
1 30.264 20.3851 0
1 31.525 19.657 0
1 32.786 20.3851 0
1 34.047 19.657 0
1 35.308 20.3851 0
1 36.569 19.657 0
1 37.83 20.3851 0
1 39.091 19.657 0
1 40.352 20.3851 0
1 41.613 19.657 0
1 42.874 20.3851 0
1 44.135 19.657 0
1 45.396 20.3851 0
1 46.657 19.657 0
1 47.918 20.3851 0
1 49.179 19.657 0
1 50.44 20.3851 0
1 51.701 19.657 0
1 52.962 20.3851 0
1 54.223 19.657 0
1 55.484 20.3851 0
1 56.745 19.657 0
1 58.006 20.3851 0
1 59.267 19.657 0
1 60.528 20.3851 0
1 12.61 21.8412 0
1 13.871 22.5692 0
1 15.132 21.8412 0
1 16.393 22.5692 0
1 17.654 21.8412 0
1 18.915 22.5692 0
1 20.176 21.8412 0
1 21.437 22.5692 0
1 22.698 21.8412 0
1 23.959 22.5692 0
1 25.22 21.8412 0
1 26.481 22.5692 0
1 27.742 21.8412 0
1 29.003 22.5692 0
1 30.264 21.8412 0
1 31.525 22.5692 0
1 32.786 21.8412 0
1 34.047 22.5692 0
1 35.308 21.8412 0
1 36.569 22.5692 0
1 37.83 21.8412 0
1 39.091 22.5692 0
1 40.352 21.8412 0
1 41.613 22.5692 0
1 42.874 21.8412 0
1 44.135 22.5692 0
1 45.396 21.8412 0
1 46.657 22.5692 0
1 47.918 21.8412 0
1 49.179 22.5692 0
1 50.44 21.8412 0
1 51.701 22.5692 0
1 52.962 21.8412 0
1 54.223 22.5692 0
1 55.484 21.8412 0
1 56.745 22.5692 0
1 58.006 21.8412 0
1 59.267 22.5692 0
1 60.528 21.8412 0
1 61.789 22.5692 0
1 13.871 24.0253 0
1 15.132 24.7533 0
1 16.393 24.0253 0
1 17.654 24.7533 0
1 18.915 24.0253 0
1 20.176 24.7533 0
1 21.437 24.0253 0
1 22.698 24.7533 0
1 23.959 24.0253 0
1 25.22 24.7533 0
1 26.481 24.0253 0
1 27.742 24.7533 0
1 29.003 24.0253 0
1 30.264 24.7533 0
1 31.525 24.0253 0
1 32.786 24.7533 0
1 34.047 24.0253 0
1 35.308 24.7533 0
1 36.569 24.0253 0
1 37.83 24.7533 0
1 39.091 24.0253 0
1 40.352 24.7533 0
1 41.613 24.0253 0
1 42.874 24.7533 0
1 44.135 24.0253 0
1 45.396 24.7533 0
1 46.657 24.0253 0
1 47.918 24.7533 0
1 49.179 24.0253 0
1 50.44 24.7533 0
1 51.701 24.0253 0
1 52.962 24.7533 0
1 54.223 24.0253 0
1 55.484 24.7533 0
1 56.745 24.0253 0
1 58.006 24.7533 0
1 59.267 24.0253 0
1 60.528 24.7533 0
1 61.789 24.0253 0
1 63.05 24.7533 0
1 15.132 26.2094 0
1 16.393 26.9374 0
1 17.654 26.2094 0
1 18.915 26.9374 0
1 20.176 26.2094 0
1 21.437 26.9374 0
1 22.698 26.2094 0
1 23.959 26.9374 0
1 25.22 26.2094 0
1 26.481 26.9374 0
1 27.742 26.2094 0
1 29.003 26.9374 0
1 30.264 26.2094 0
1 31.525 26.9374 0
1 32.786 26.2094 0
1 34.047 26.9374 0
1 35.308 26.2094 0
1 36.569 26.9374 0
1 37.83 26.2094 0
1 39.091 26.9374 0
1 40.352 26.2094 0
1 41.613 26.9374 0
1 42.874 26.2094 0
1 44.135 26.9374 0
1 45.396 26.2094 0
1 46.657 26.9374 0
1 47.918 26.2094 0
1 49.179 26.9374 0
1 50.44 26.2094 0
1 51.701 26.9374 0
1 52.962 26.2094 0
1 54.223 26.9374 0
1 55.484 26.2094 0
1 56.745 26.9374 0
1 58.006 26.2094 0
1 59.267 26.9374 0
1 60.528 26.2094 0
1 61.789 26.9374 0
1 63.05 26.2094 0
1 64.311 26.9374 0
1 16.393 28.3935 0
1 17.654 29.1215 0
1 18.915 28.3935 0
1 20.176 29.1215 0
1 21.437 28.3935 0
1 22.698 29.1215 0
1 23.959 28.3935 0
1 25.22 29.1215 0
1 26.481 28.3935 0
1 27.742 29.1215 0
1 29.003 28.3935 0
1 30.264 29.1215 0
1 31.525 28.3935 0
1 32.786 29.1215 0
1 34.047 28.3935 0
1 35.308 29.1215 0
1 36.569 28.3935 0
1 37.83 29.1215 0
1 39.091 28.3935 0
1 40.352 29.1215 0
1 41.613 28.3935 0
1 42.874 29.1215 0
1 44.135 28.3935 0
1 45.396 29.1215 0
1 46.657 28.3935 0
1 47.918 29.1215 0
1 49.179 28.3935 0
1 50.44 29.1215 0
1 51.701 28.3935 0
1 52.962 29.1215 0
1 54.223 28.3935 0
1 55.484 29.1215 0
1 56.745 28.3935 0
1 58.006 29.1215 0
1 59.267 28.3935 0
1 60.528 29.1215 0
1 61.789 28.3935 0
1 63.05 29.1215 0
1 64.311 28.3935 0
1 65.572 29.1215 0
1 17.654 30.5776 0
1 18.915 31.3057 0
1 20.176 30.5776 0
1 21.437 31.3057 0
1 22.698 30.5776 0
1 23.959 31.3057 0
1 25.22 30.5776 0
1 26.481 31.3057 0
1 27.742 30.5776 0
1 29.003 31.3057 0
1 30.264 30.5776 0
1 31.525 31.3057 0
1 32.786 30.5776 0
1 34.047 31.3057 0
1 35.308 30.5776 0
1 36.569 31.3057 0
1 37.83 30.5776 0
1 39.091 31.3057 0
1 40.352 30.5776 0
1 41.613 31.3057 0
1 42.874 30.5776 0
1 44.135 31.3057 0
1 45.396 30.5776 0
1 46.657 31.3057 0
1 47.918 30.5776 0
1 49.179 31.3057 0
1 50.44 30.5776 0
1 51.701 31.3057 0
1 52.962 30.5776 0
1 54.223 31.3057 0
1 55.484 30.5776 0
1 56.745 31.3057 0
1 58.006 30.5776 0
1 59.267 31.3057 0
1 60.528 30.5776 0
1 61.789 31.3057 0
1 63.05 30.5776 0
1 64.311 31.3057 0
1 65.572 30.5776 0
1 66.833 31.3057 0
1 18.915 32.7617 0
1 20.176 33.4898 0
1 21.437 32.7617 0
1 22.698 33.4898 0
1 23.959 32.7617 0
1 25.22 33.4898 0
1 26.481 32.7617 0
1 27.742 33.4898 0
1 29.003 32.7617 0
1 30.264 33.4898 0
1 31.525 32.7617 0
1 32.786 33.4898 0
1 34.047 32.7617 0
1 35.308 33.4898 0
1 36.569 32.7617 0
1 37.83 33.4898 0
1 39.091 32.7617 0
1 40.352 33.4898 0
1 41.613 32.7617 0
1 42.874 33.4898 0
1 44.135 32.7617 0
1 45.396 33.4898 0
1 46.657 32.7617 0
1 47.918 33.4898 0
1 49.179 32.7617 0
1 50.44 33.4898 0
1 51.701 32.7617 0
1 52.962 33.4898 0
1 54.223 32.7617 0
1 55.484 33.4898 0
1 56.745 32.7617 0
1 58.006 33.4898 0
1 59.267 32.7617 0
1 60.528 33.4898 0
1 61.789 32.7617 0
1 63.05 33.4898 0
1 64.311 32.7617 0
1 65.572 33.4898 0
1 66.833 32.7617 0
1 68.094 33.4898 0
1 20.176 34.9459 0
1 21.437 35.6739 0
1 22.698 34.9459 0
1 23.959 35.6739 0
1 25.22 34.9459 0
1 26.481 35.6739 0
1 27.742 34.9459 0
1 29.003 35.6739 0
1 30.264 34.9459 0
1 31.525 35.6739 0
1 32.786 34.9459 0
1 34.047 35.6739 0
1 35.308 34.9459 0
1 36.569 35.6739 0
1 37.83 34.9459 0
1 39.091 35.6739 0
1 40.352 34.9459 0
1 41.613 35.6739 0
1 42.874 34.9459 0
1 44.135 35.6739 0
1 45.396 34.9459 0
1 46.657 35.6739 0
1 47.918 34.9459 0
1 49.179 35.6739 0
1 50.44 34.9459 0
1 51.701 35.6739 0
1 52.962 34.9459 0
1 54.223 35.6739 0
1 55.484 34.9459 0
1 56.745 35.6739 0
1 58.006 34.9459 0
1 59.267 35.6739 0
1 60.528 34.9459 0
1 61.789 35.6739 0
1 63.05 34.9459 0
1 64.311 35.6739 0
1 65.572 34.9459 0
1 66.833 35.6739 0
1 68.094 34.9459 0
1 69.355 35.6739 0
1 21.437 37.13 0
1 22.698 37.858 0
1 23.959 37.13 0
1 25.22 37.858 0
1 26.481 37.13 0
1 27.742 37.858 0
1 29.003 37.13 0
1 30.264 37.858 0
1 31.525 37.13 0
1 32.786 37.858 0
1 34.047 37.13 0
1 35.308 37.858 0
1 36.569 37.13 0
1 37.83 37.858 0
1 39.091 37.13 0
1 40.352 37.858 0
1 41.613 37.13 0
1 42.874 37.858 0
1 44.135 37.13 0
1 45.396 37.858 0
1 46.657 37.13 0
1 47.918 37.858 0
1 49.179 37.13 0
1 50.44 37.858 0
1 51.701 37.13 0
1 52.962 37.858 0
1 54.223 37.13 0
1 55.484 37.858 0
1 56.745 37.13 0
1 58.006 37.858 0
1 59.267 37.13 0
1 60.528 37.858 0
1 61.789 37.13 0
1 63.05 37.858 0
1 64.311 37.13 0
1 65.572 37.858 0
1 66.833 37.13 0
1 68.094 37.858 0
1 69.355 37.13 0
1 70.616 37.858 0
1 22.698 39.3141 0
1 23.959 40.0421 0
1 25.22 39.3141 0
1 26.481 40.0421 0
1 27.742 39.3141 0
1 29.003 40.0421 0
1 30.264 39.3141 0
1 31.525 40.0421 0
1 32.786 39.3141 0
1 34.047 40.0421 0
1 35.308 39.3141 0
1 36.569 40.0421 0
1 37.83 39.3141 0
1 39.091 40.0421 0
1 40.352 39.3141 0
1 41.613 40.0421 0
1 42.874 39.3141 0
1 44.135 40.0421 0
1 45.396 39.3141 0
1 46.657 40.0421 0
1 47.918 39.3141 0
1 49.179 40.0421 0
1 50.44 39.3141 0
1 51.701 40.0421 0
1 52.962 39.3141 0
1 54.223 40.0421 0
1 55.484 39.3141 0
1 56.745 40.0421 0
1 58.006 39.3141 0
1 59.267 40.0421 0
1 60.528 39.3141 0
1 61.789 40.0421 0
1 63.05 39.3141 0
1 64.311 40.0421 0
1 65.572 39.3141 0
1 66.833 40.0421 0
1 68.094 39.3141 0
1 69.355 40.0421 0
1 70.616 39.3141 0
1 71.877 40.0421 0
1 23.959 41.4982 0
1 25.22 42.2262 0
1 26.481 41.4982 0
1 27.742 42.2262 0
1 29.003 41.4982 0
1 30.264 42.2262 0
1 31.525 41.4982 0
1 32.786 42.2262 0
1 34.047 41.4982 0
1 35.308 42.2262 0
1 36.569 41.4982 0
1 37.83 42.2262 0
1 39.091 41.4982 0
1 40.352 42.2262 0
1 41.613 41.4982 0
1 42.874 42.2262 0
1 44.135 41.4982 0
1 45.396 42.2262 0
1 46.657 41.4982 0
1 47.918 42.2262 0
1 49.179 41.4982 0
1 50.44 42.2262 0
1 51.701 41.4982 0
1 52.962 42.2262 0
1 54.223 41.4982 0
1 55.484 42.2262 0
1 56.745 41.4982 0
1 58.006 42.2262 0
1 59.267 41.4982 0
1 60.528 42.2262 0
1 61.789 41.4982 0
1 63.05 42.2262 0
1 64.311 41.4982 0
1 65.572 42.2262 0
1 66.833 41.4982 0
1 68.094 42.2262 0
1 69.355 41.4982 0
1 70.616 42.2262 0
1 71.877 41.4982 0
1 73.138 42.2262 0
800
Atoms. Timestep: 50000
1 25.1751 43.6622 0.44099
1 1.252 0.673965 0.663658
1 27.7402 43.6518 0.57503
1 3.76527 0.692345 0.580813
1 30.2703 43.6451 0.290729
1 6.3101 0.737514 0.31671
1 7.53449 0.000751952 0.150125
1 8.79184 0.724224 4.13822
1 10.0594 -0.00183136 3.79635
1 11.2936 0.735247 3.61462
1 37.7909 43.7096 3.51585
1 13.8467 0.76521 3.58043
1 15.1275 -0.0018176 3.6488
1 16.3626 0.753043 3.74406
1 42.8346 43.6838 3.74267
1 18.8915 0.726586 3.64261
1 45.3741 43.6706 3.75948
1 21.4457 0.744477 3.71058
1 22.7005 0.0556735 3.71777
1 23.9538 0.757106 3.67748
1 50.4364 43.6695 3.75177
1 26.5082 0.730213 3.91484
1 27.7542 0.00488295 4.09716
1 29.0286 0.743353 3.96165
1 30.2702 0.0326971 3.84456
1 31.5259 0.739546 3.75278
1 32.7801 -0.021087 3.74795
1 34.0345 0.703595 3.6649
1 35.3253 -0.0399857 3.59951
1 36.5648 0.673274 3.51813
1 63.0337 43.651 3.44742
1 39.0866 0.704966 3.51086
1 65.5501 43.6401 3.67056
1 41.59 0.732556 3.86395
1 68.0827 43.6386 3.90616
1 44.1002 0.70235 -0.0353412
1 70.5849 43.6854 4.13825
1 46.6269 0.710198 0.201817
1 73.1119 43.6511 0.21195
1 49.1528 0.689071 0.380317
1 1.22689 2.16428 0.711148
1 2.53552 2.8911 0.814997
1 3.80798 2.17111 0.758868
1 5.05931 2.91767 0.747007
1 6.33429 2.18624 0.56049
1 7.56566 2.8934 0.513921
1 8.80504 2.18213 0.181567
1 10.0125 2.89714 -0.110298
1 11.3046 2.16789 3.76546
1 12.5882 2.9357 3.85155
1 13.864 2.22233 3.76741
1 15.1486 2.94412 3.88896
1 16.405 2.18246 3.74498
1 17.6507 2.93408 3.58056
1 18.9311 2.21711 3.55793
1 20.2059 2.934 3.57961
1 21.4609 2.17907 3.67426
1 22.7329 2.91861 3.73919
1 23.9742 2.21602 3.70467
1 25.2342 2.93008 3.8727
1 26.4946 2.21529 3.98389
1 27.7686 2.92918 4.0156
1 29.0597 2.22871 4.01603
1 30.2739 2.93571 3.81817
1 31.4972 2.19946 3.65651
1 32.7839 2.91132 3.54445
1 34.0347 2.17941 3.58151
1 35.3429 2.90368 3.47177
1 36.5794 2.17606 3.47712
1 37.8116 2.90305 3.52548
1 39.096 2.15814 3.60644
1 40.3636 2.8897 3.75284
1 41.6081 2.16562 3.83602
1 42.8372 2.8944 3.98243
1 44.091 2.13105 0.0287496
1 45.3667 2.87786 0.274003
1 46.6474 2.19068 0.330467
1 47.87 2.91082 0.483249
1 49.161 2.19196 0.549777
1 50.4093 2.90057 0.658993
1 2.53583 4.38837 0.835604
1 3.8111 5.08304 0.94183
1 5.08625 4.34926 0.82136
1 6.33963 5.09721 0.68741
1 7.57798 4.32897 0.58726
1 8.86108 5.06499 0.416462
1 10.0913 4.33686 0.138106
1 11.3561 5.07524 4.20313
1 12.6095 4.38629 3.98861
1 13.8368 5.1185 3.99868
1 15.1394 4.38611 3.92031
1 16.4033 5.10085 3.76531
1 17.6884 4.38089 3.5377
1 18.931 5.10762 3.62273
1 20.2217 4.36309 3.64882
1 21.4493 5.08776 3.75668
1 22.7329 4.38007 3.75295
1 23.9692 5.155 3.8725
1 25.2608 4.3906 3.86234
1 26.5154 5.08962 3.99537
1 27.7596 4.35854 3.95758
1 29.0202 5.12 3.86902
1 30.2871 4.39996 3.65527
1 31.5243 5.1168 3.53928
1 32.7668 4.37539 3.48161
1 34.0202 5.06455 3.44464
1 35.2986 4.33532 3.44733
1 36.5646 5.10364 3.47796
1 37.8069 4.35592 3.50896
1 39.0756 5.10689 3.66406
1 40.3707 4.31658 3.63369
1 41.5974 5.05443 3.74157
1 42.8642 4.31774 3.95161
1 44.0989 5.05302 0.181666
1 45.344 4.31947 0.349394
1 46.6078 5.06764 0.54815
1 47.8802 4.31018 0.642276
1 49.1514 5.0685 0.663114
1 50.3917 4.34699 0.729734
1 51.7164 5.08145 0.70095
1 3.78769 6.57119 0.832179
1 5.07651 7.26934 0.888973
1 6.34774 6.54462 0.798616
1 7.56412 7.29815 0.533117
1 8.82594 6.55096 0.402829
1 10.0934 7.28504 0.244368
1 11.376 6.55716 0.0682563
1 12.6057 7.27921 -0.0923088
1 13.8801 6.58028 4.01839
1 15.1283 7.31652 3.91976
1 16.4168 6.57601 3.82023
1 17.6677 7.28666 3.8845
1 18.9342 6.54932 3.81358
1 20.1798 7.31127 3.89356
1 21.4453 6.58799 3.8424
1 22.7168 7.29615 3.87611
1 23.9605 6.57735 3.95859
1 25.2383 7.32773 3.96407
1 26.5073 6.60058 -0.0893031
1 27.7301 7.31077 4.03854
1 29.0325 6.57634 3.83197
1 30.2851 7.25891 3.72987
1 31.5004 6.53305 3.51173
1 32.7776 7.26526 3.44004
1 34.0359 6.55465 3.38217
1 35.3006 7.27365 3.45861
1 36.5461 6.5431 3.48893
1 37.7877 7.24996 3.54244
1 39.0573 6.55835 3.65077
1 40.3325 7.26485 3.7557
1 41.5778 6.53185 3.88688
1 42.8167 7.28181 0.0591911
1 44.0901 6.5347 0.242263
1 45.3196 7.28377 0.386168
1 46.6079 6.52629 0.470676
1 47.847 7.27407 0.502054
1 49.1322 6.50821 0.521147
1 50.3936 7.23187 0.45543
1 51.6624 6.52945 0.620564
1 52.9372 7.2942 0.709818
1 5.06453 8.73391 0.816729
1 6.33998 9.47255 0.7934
1 7.59311 8.74634 0.588
1 8.81821 9.45405 0.593135
1 10.0716 8.73657 0.383396
1 11.3398 9.47526 0.232155
1 12.5966 8.76128 4.09654
1 13.8851 9.48344 4.0707
1 15.1414 8.77716 3.92916
1 16.3916 9.47613 3.9078
1 17.6779 8.71859 3.91305
1 18.9164 9.45167 3.97394
1 20.1637 8.74915 3.79851
1 21.4303 9.48864 3.81885
1 22.7143 8.78116 3.85243
1 23.9786 9.49152 3.83881
1 25.2131 8.81069 3.82584
1 26.4663 9.49849 3.78457
1 27.7441 8.75019 3.81891
1 29.0199 9.43082 3.61282
1 30.2721 8.71302 3.64218
1 31.5428 9.45517 3.52296
1 32.8156 8.73447 3.48229
1 34.0468 9.47767 3.52793
1 35.2918 8.75674 3.48385
1 36.536 9.45149 3.5638
1 37.8263 8.72777 3.55491
1 39.1098 9.42689 3.6739
1 40.3325 8.69722 3.78757
1 41.5939 9.42155 4.0008
1 42.8188 8.70001 0.0103079
1 44.0562 9.44098 0.284219
1 45.3146 8.69863 0.383409
1 46.5858 9.44115 0.483098
1 47.8513 8.72593 0.533389
1 49.1344 9.47258 0.547121
1 50.4112 8.71902 0.52264
1 51.6766 9.45397 0.565065
1 52.9757 8.76871 0.64708
1 54.263 9.44859 0.563612
1 6.32503 10.9084 0.720059
1 7.61571 11.6377 0.7864
1 8.85633 10.9281 0.688374
1 10.155 11.6608 0.632143
1 11.3599 10.9103 0.425766
1 12.6388 11.6327 0.243208
1 13.9017 10.9098 0.119512
1 15.1519 11.6341 0.0525175
1 16.3924 10.9522 4.13681
1 17.6791 11.6901 4.19174
1 18.9664 10.9145 4.12743
1 20.264 11.6153 4.18466
1 21.4664 10.9197 4.00202
1 22.734 11.6603 3.84977
1 23.9833 10.9518 3.76122
1 25.2247 11.6717 3.61619
1 26.4817 10.9105 3.60788
1 27.7424 11.6037 3.34223
1 29.0112 10.9006 3.41638
1 30.3018 11.6356 3.25879
1 31.5301 10.913 3.41162
1 32.7649 11.6654 3.48314
1 34.0147 10.9235 3.67725
1 35.2986 11.6487 3.74735
1 36.551 10.9309 3.70337
1 37.8033 11.6211 3.65756
1 39.0829 10.9369 3.81605
1 40.311 11.6468 4.03552
1 41.5605 10.8988 4.14769
1 42.8486 11.6562 0.242025
1 44.0837 10.923 0.384287
1 45.2942 11.5978 0.642756
1 46.5773 10.8668 0.603825
1 47.883 11.5944 0.484648
1 49.1382 10.8889 0.448769
1 50.4372 11.6136 0.568818
1 51.6893 10.8926 0.607146
1 52.9515 11.6255 0.659961
1 54.2687 10.9333 0.601812
1 55.4909 11.6517 0.738684
1 58.0316 13.1173 0.901696
1 8.8497 13.8474 0.796455
1 10.1418 13.095 0.741801
1 11.3527 13.8397 0.49921
1 12.6218 13.1117 0.302836
1 13.892 13.8344 0.267072
1 15.1804 13.1106 0.165796
1 16.4502 13.8508 0.116792
1 17.7266 13.1277 0.110847
1 19.0117 13.8357 0.126727
1 20.245 13.1177 0.128319
1 21.5161 13.8337 4.12819
1 22.7157 13.1165 3.93354
1 23.9911 13.8631 3.73441
1 25.2379 13.1074 3.56707
1 26.4993 13.8231 3.3147
1 27.7581 13.0674 3.25319
1 29.0153 13.8059 3.0925
1 30.2459 13.0918 3.20047
1 31.515 13.8855 3.22257
1 32.7591 13.1324 3.43868
1 34.0637 13.8528 3.48618
1 35.3168 13.0988 3.64653
1 36.5413 13.829 3.76671
1 37.7726 13.0949 3.69487
1 39.0677 13.8447 3.8423
1 40.3592 13.1041 4.01626
1 41.6063 13.8151 0.145762
1 42.8279 13.1055 0.364979
1 44.0983 13.8523 0.56864
1 45.3382 13.079 0.774307
1 46.6442 13.8312 0.627959
1 47.8962 13.0567 0.630279
1 49.1889 13.7647 0.550924
1 50.4663 13.055 0.602269
1 51.691 13.787 0.629257
1 52.9192 13.0711 0.748644
1 54.1815 13.8061 0.853129
1 55.472 13.082 0.841297
1 56.7426 13.8167 0.918236
1 8.82173 15.2668 0.78985
1 10.0788 16.0228 0.684505
1 11.365 15.3186 0.531896
1 12.6376 16.0358 0.458086
1 13.8855 15.2946 0.285964
1 15.1807 16.0117 0.380758
1 16.4539 15.2762 0.272754
1 17.6949 16.0318 0.362197
1 18.9904 15.3027 0.29718
1 20.2517 16.0284 0.22185
1 21.5267 15.3041 -0.00721102
1 22.7749 16.0206 3.7834
1 24.0371 15.2898 3.6065
1 25.3023 16.0154 3.38767
1 26.5308 15.2975 3.27344
1 27.7918 16.0286 3.12192
1 29.0167 15.2791 3.06559
1 30.2592 16.016 3.04643
1 31.4996 15.3069 3.2151
1 32.7757 16.0234 3.31758
1 34.0597 15.2871 3.38607
1 35.3196 16.0166 3.57791
1 36.5453 15.2763 3.73638
1 37.7962 16.0164 3.89112
1 39.053 15.2896 3.91589
1 40.3643 16.0456 -0.0464527
1 41.6016 15.2758 0.156893
1 42.8412 16.0313 0.462816
1 44.1202 15.2984 0.585016
1 45.38 16.0297 0.581294
1 46.644 15.2949 0.545759
1 47.9225 15.9629 0.551467
1 49.1889 15.1992 0.526192
1 50.4108 15.9451 0.468229
1 51.652 15.2539 0.534789
1 52.9118 15.9573 0.614361
1 54.1823 15.2637 0.785678
1 55.4476 15.9516 0.683319
1 56.7138 15.2503 0.701284
1 58.0099 16.0031 0.732333
1 10.0927 17.4867 0.634771
1 11.3803 18.2231 0.6365
1 12.6495 17.4898 0.575512
1 13.9054 18.1627 0.456359
1 15.1643 17.4646 0.505342
1 16.4156 18.2018 0.256943
1 17.6918 17.4746 0.264998
1 18.9115 18.2072 0.124449
1 20.2325 17.4658 0.118677
1 21.4493 18.1815 4.09718
1 22.7073 17.4775 3.74152
1 23.9461 18.2069 3.49572
1 25.259 17.5113 3.31414
1 26.4983 18.2041 3.24092
1 27.776 17.4709 3.15146
1 29.0377 18.2067 3.05669
1 30.2722 17.4651 3.02404
1 31.506 18.1992 3.17701
1 32.7774 17.4675 3.29632
1 34.0194 18.1934 3.38849
1 35.3115 17.4536 3.55413
1 36.5446 18.1811 3.90043
1 37.7968 17.4461 4.01215
1 39.0783 18.1989 0.10769
1 40.3433 17.4572 0.107229
1 41.6145 18.2105 0.244005
1 42.8364 17.4886 0.467553
1 44.0702 18.204 0.626928
1 45.3654 17.4424 0.69077
1 46.6351 18.1407 0.808743
1 47.8983 17.3916 0.712925
1 49.1487 18.1706 0.709947
1 50.4034 17.4376 0.633491
1 51.6609 18.1859 0.678939
1 52.9266 17.4312 0.643205
1 54.1989 18.1834 0.696861
1 55.4587 17.4237 0.677691
1 56.7379 18.1682 0.651332
1 58.0195 17.4307 0.666595
1 59.2685 18.192 0.606267
1 11.3525 19.6802 0.594329
1 12.6175 20.3903 0.482942
1 13.8962 19.6209 0.437436
1 15.1435 20.4133 0.348881
1 16.3945 19.6709 0.228648
1 17.6613 20.3914 0.293558
1 18.9046 19.6854 0.107438
1 20.1789 20.3545 -0.00366077
1 21.4656 19.6609 4.09897
1 22.7374 20.3917 3.8975
1 23.9562 19.658 3.66224
1 25.2447 20.3773 3.61996
1 26.5025 19.6513 3.33834
1 27.7895 20.3674 3.29421
1 28.9879 19.6777 3.08709
1 30.2737 20.4227 3.04312
1 31.4729 19.7056 3.10861
1 32.7631 20.4107 3.26819
1 34.0409 19.6255 3.38244
1 35.2781 20.3492 3.69516
1 36.5259 19.6315 3.98011
1 37.7571 20.3408 -0.0399701
1 39.0643 19.6355 0.13891
1 40.3343 20.3973 0.283822
1 41.5878 19.6916 0.270061
1 42.8328 20.4071 0.458331
1 44.0599 19.6467 0.621506
1 45.3336 20.3641 0.787848
1 46.6116 19.6085 0.784186
1 47.8767 20.3412 0.722305
1 49.1553 19.6327 0.70992
1 50.42 20.3673 0.660772
1 51.6925 19.6448 0.688895
1 52.9281 20.3808 0.607256
1 54.2055 19.6741 0.565316
1 55.4917 20.3889 0.576327
1 56.7526 19.6419 0.603402
1 58.0159 20.3693 0.554554
1 59.3037 19.6648 0.536275
1 60.5741 20.3959 0.640194
1 12.633 21.8483 0.527773
1 13.8682 22.5725 0.563468
1 15.1578 21.8517 0.405113
1 16.4145 22.5676 0.402844
1 17.6552 21.8253 0.316573
1 18.894 22.5314 4.22901
1 20.1678 21.8128 4.08207
1 21.4468 22.5911 3.91507
1 22.7328 21.84 3.79191
1 23.9675 22.5537 3.70671
1 25.2442 21.8424 3.68966
1 26.507 22.5673 3.58354
1 27.7966 21.8475 3.45211
1 29.0442 22.61 3.33252
1 30.3123 21.8832 3.2022
1 31.5886 22.5935 3.24972
1 32.8324 21.8426 3.37047
1 34.0764 22.573 3.45244
1 35.2975 21.81 3.6178
1 36.5216 22.5356 3.87608
1 37.738 21.7936 4.0702
1 39.0176 22.5488 0.0571961
1 40.2951 21.8583 0.216354
1 41.5771 22.6129 0.265
1 42.813 21.8591 0.400634
1 44.0769 22.588 0.500845
1 45.3267 21.8482 0.715165
1 46.5799 22.5565 0.665827
1 47.8799 21.8079 0.637805
1 49.1426 22.5525 0.59477
1 50.411 21.81 0.648362
1 51.6731 22.5846 0.626794
1 52.9346 21.874 0.65784
1 54.2256 22.5986 0.714895
1 55.5217 21.8508 0.662392
1 56.7753 22.583 0.657827
1 58.0444 21.8435 0.641263
1 59.3062 22.5836 0.759615
1 60.5906 21.8604 0.601135
1 61.8228 22.6073 0.567067
1 64.3225 24.0035 0.615275
1 15.1359 24.7495 0.448998
1 16.3881 24.0251 0.364522
1 17.6818 24.725 0.140092
1 18.9127 24.0004 4.16482
1 20.1631 24.7672 3.97786
1 21.3951 24.0388 3.88285
1 22.7232 24.7752 3.7464
1 23.9584 24 3.58703
1 25.2242 24.7587 3.55379
1 26.4929 24.0276 3.53856
1 27.7665 24.772 3.61573
1 29.0199 24.0725 3.41016
1 30.2684 24.7689 3.24082
1 31.5718 24.035 3.2258
1 32.7968 24.8046 3.362
1 34.0822 24.0321 3.45266
1 35.3134 24.726 3.59339
1 36.5487 23.9913 3.76655
1 37.8245 24.7242 3.80061
1 39.0572 24.0054 4.02111
1 40.3459 24.7592 0.0195949
1 41.5524 24.048 0.212036
1 42.8438 24.7828 0.274428
1 44.1019 24.073 0.395657
1 45.3342 24.784 0.264708
1 46.5782 24.0456 0.438733
1 47.8947 24.7539 0.437625
1 49.1458 24.0038 0.561716
1 50.4202 24.7594 0.623602
1 51.6932 24.0316 0.679048
1 52.9639 24.7603 0.775354
1 54.2426 24.051 0.809028
1 55.4838 24.7945 0.783947
1 56.7608 24.0355 0.74315
1 58.0331 24.754 0.864589
1 59.3095 24.0714 0.818079
1 60.5859 24.7942 0.624235
1 61.8075 24.0503 0.656198
1 63.0952 24.7542 0.68722
1 15.1454 26.2381 0.348911
1 16.4036 26.9315 0.0244479
1 17.6768 26.2043 0.0460141
1 18.9336 26.9219 4.00432
1 20.165 26.1949 3.91954
1 21.4266 26.9355 3.79946
1 22.7312 26.2387 3.83282
1 23.9976 26.9421 3.72204
1 25.2344 26.2259 3.62122
1 26.5101 26.912 3.66482
1 27.7567 26.2021 3.62593
1 29.0322 26.9176 3.53381
1 30.262 26.2346 3.33856
1 31.5541 26.9743 3.28052
1 32.7979 26.2211 3.41075
1 34.0404 26.912 3.59046
1 35.3097 26.1642 3.66659
1 36.5509 26.9185 3.7439
1 37.823 26.2185 3.82212
1 39.0723 26.951 3.93985
1 40.3525 26.2268 -0.113375
1 41.5917 26.9575 4.12704
1 42.8522 26.2345 0.199289
1 44.103 26.9758 0.173535
1 45.3763 26.2456 0.272786
1 46.6393 26.931 0.453409
1 47.8865 26.1956 0.498876
1 49.1534 26.9469 0.559542
1 50.449 26.2048 0.674877
1 51.7051 26.9613 0.714484
1 52.9749 26.2368 0.789462
1 54.2287 26.9852 0.806692
1 55.474 26.2675 0.803783
1 56.7691 27.0008 0.912389
1 58.0248 26.2366 0.877618
1 59.3291 26.9433 0.855193