800
Atoms. Timestep: 0
1 0 0 0
1 1.261 0.728039 0
1 2.522 0 0
1 3.783 0.728039 0
1 5.044 0 0
1 6.305 0.728039 0
1 7.566 0 0
1 8.827 0.728039 0
1 10.088 0 0
1 11.349 0.728039 0
1 12.61 0 0
1 13.871 0.728039 0
1 15.132 0 0
1 16.393 0.728039 0
1 17.654 0 0
1 18.915 0.728039 0
1 20.176 0 0
1 21.437 0.728039 0
1 22.698 0 0
1 23.959 0.728039 0
1 25.22 0 0
1 26.481 0.728039 0
1 27.742 0 0
1 29.003 0.728039 0
1 30.264 0 0
1 31.525 0.728039 0
1 32.786 0 0
1 34.047 0.728039 0
1 35.308 0 0
1 36.569 0.728039 0
1 37.83 0 0
1 39.091 0.728039 0
1 40.352 0 0
1 41.613 0.728039 0
1 42.874 0 0
1 44.135 0.728039 0
1 45.396 0 0
1 46.657 0.728039 0
1 47.918 0 0
1 49.179 0.728039 0
1 1.261 2.18412 0
1 2.522 2.91215 0
1 3.783 2.18412 0
1 5.044 2.91215 0
1 6.305 2.18412 0
1 7.566 2.91215 0
1 8.827 2.18412 0
1 10.088 2.91215 0
1 11.349 2.18412 0
1 12.61 2.91215 0
1 13.871 2.18412 0
1 15.132 2.91215 0
1 16.393 2.18412 0
1 17.654 2.91215 0
1 18.915 2.18412 0
1 20.176 2.91215 0
1 21.437 2.18412 0
1 22.698 2.91215 0
1 23.959 2.18412 0
1 25.22 2.91215 0
1 26.481 2.18412 0
1 27.742 2.91215 0
1 29.003 2.18412 0
1 30.264 2.91215 0
1 31.525 2.18412 0
1 32.786 2.91215 0
1 34.047 2.18412 0
1 35.308 2.91215 0
1 36.569 2.18412 0
1 37.83 2.91215 0
1 39.091 2.18412 0
1 40.352 2.91215 0
1 41.613 2.18412 0
1 42.874 2.91215 0
1 44.135 2.18412 0
1 45.396 2.91215 0
1 46.657 2.18412 0
1 47.918 2.91215 0
1 49.179 2.18412 0
1 50.44 2.91215 0
1 2.522 4.36823 0
1 3.783 5.09627 0
1 5.044 4.36823 0
1 6.305 5.09627 0
1 7.566 4.36823 0
1 8.827 5.09627 0
1 10.088 4.36823 0
1 11.349 5.09627 0
1 12.61 4.36823 0
1 13.871 5.09627 0
1 15.132 4.36823 0
1 16.393 5.09627 0
1 17.654 4.36823 0
1 18.915 5.09627 0
1 20.176 4.36823 0
1 21.437 5.09627 0
1 22.698 4.36823 0
1 23.959 5.09627 0
1 25.22 4.36823 0
1 26.481 5.09627 0
1 27.742 4.36823 0
1 29.003 5.09627 0
1 30.264 4.36823 0
1 31.525 5.09627 0
1 32.786 4.36823 0
1 34.047 5.09627 0
1 35.308 4.36823 0
1 36.569 5.09627 0
1 37.83 4.36823 0
1 39.091 5.09627 0
1 40.352 4.36823 0
1 41.613 5.09627 0
1 42.874 4.36823 0
1 44.135 5.09627 0
1 45.396 4.36823 0
1 46.657 5.09627 0
1 47.918 4.36823 0
1 49.179 5.09627 0
1 50.44 4.36823 0
1 51.701 5.09627 0
1 3.783 6.55235 0
1 5.044 7.28039 0
1 6.305 6.55235 0
1 7.566 7.28039 0
1 8.827 6.55235 0
1 10.088 7.28039 0
1 11.349 6.55235 0
1 12.61 7.28039 0
1 13.871 6.55235 0
1 15.132 7.28039 0
1 16.393 6.55235 0
1 17.654 7.28039 0
1 18.915 6.55235 0
1 20.176 7.28039 0
1 21.437 6.55235 0
1 22.698 7.28039 0
1 23.959 6.55235 0
1 25.22 7.28039 0
1 26.481 6.55235 0
1 27.742 7.28039 0
1 29.003 6.55235 0
1 30.264 7.28039 0
1 31.525 6.55235 0
1 32.786 7.28039 0
1 34.047 6.55235 0
1 35.308 7.28039 0
1 36.569 6.55235 0
1 37.83 7.28039 0
1 39.091 6.55235 0
1 40.352 7.28039 0
1 41.613 6.55235 0
1 42.874 7.28039 0
1 44.135 6.55235 0
1 45.396 7.28039 0
1 46.657 6.55235 0
1 47.918 7.28039 0
1 49.179 6.55235 0
1 50.44 7.28039 0
1 51.701 6.55235 0
1 52.962 7.28039 0
1 5.044 8.73646 0
1 6.305 9.4645 0
1 7.566 8.73646 0
1 8.827 9.4645 0
1 10.088 8.73646 0
1 11.349 9.4645 0
1 12.61 8.73646 0
1 13.871 9.4645 0
1 15.132 8.73646 0
1 16.393 9.4645 0
1 17.654 8.73646 0
1 18.915 9.4645 0
1 20.176 8.73646 0
1 21.437 9.4645 0
1 22.698 8.73646 0
1 23.959 9.4645 0
1 25.22 8.73646 0
1 26.481 9.4645 0
1 27.742 8.73646 0
1 29.003 9.4645 0
1 30.264 8.73646 0
1 31.525 9.4645 0
1 32.786 8.73646 0
1 34.047 9.4645 0
1 35.308 8.73646 0
1 36.569 9.4645 0
1 37.83 8.73646 0
1 39.091 9.4645 0
1 40.352 8.73646 0
1 41.613 9.4645 0
1 42.874 8.73646 0
1 44.135 9.4645 0
1 45.396 8.73646 0
1 46.657 9.4645 0
1 47.918 8.73646 0
1 49.179 9.4645 0
1 50.44 8.73646 0
1 51.701 9.4645 0
1 52.962 8.73646 0
1 54.223 9.4645 0
1 6.305 10.9206 0
1 7.566 11.6486 0
1 8.827 10.9206 0
1 10.088 11.6486 0
1 11.349 10.9206 0
1 12.61 11.6486 0
1 13.871 10.9206 0
1 15.132 11.6486 0
1 16.393 10.9206 0
1 17.654 11.6486 0
1 18.915 10.9206 0
1 20.176 11.6486 0
1 21.437 10.9206 0
1 22.698 11.6486 0
1 23.959 10.9206 0
1 25.22 11.6486 0
1 26.481 10.9206 0
1 27.742 11.6486 0
1 29.003 10.9206 0
1 30.264 11.6486 0
1 31.525 10.9206 0
1 32.786 11.6486 0
1 34.047 10.9206 0
1 35.308 11.6486 0
1 36.569 10.9206 0
1 37.83 11.6486 0
1 39.091 10.9206 0
1 40.352 11.6486 0
1 41.613 10.9206 0
1 42.874 11.6486 0
1 44.135 10.9206 0
1 45.396 11.6486 0
1 46.657 10.9206 0
1 47.918 11.6486 0
1 49.179 10.9206 0
1 50.44 11.6486 0
1 51.701 10.9206 0
1 52.962 11.6486 0
1 54.223 10.9206 0
1 55.484 11.6486 0
1 7.566 13.1047 0
1 8.827 13.8327 0
1 10.088 13.1047 0
1 11.349 13.8327 0
1 12.61 13.1047 0
1 13.871 13.8327 0
1 15.132 13.1047 0
1 16.393 13.8327 0
1 17.654 13.1047 0
1 18.915 13.8327 0
1 20.176 13.1047 0
1 21.437 13.8327 0
1 22.698 13.1047 0
1 23.959 13.8327 0
1 25.22 13.1047 0
1 26.481 13.8327 0
1 27.742 13.1047 0
1 29.003 13.8327 0
1 30.264 13.1047 0
1 31.525 13.8327 0
1 32.786 13.1047 0
1 34.047 13.8327 0
1 35.308 13.1047 0
1 36.569 13.8327 0
1 37.83 13.1047 0
1 39.091 13.8327 0
1 40.352 13.1047 0
1 41.613 13.8327 0
1 42.874 13.1047 0
1 44.135 13.8327 0
1 45.396 13.1047 0
1 46.657 13.8327 0
1 47.918 13.1047 0
1 49.179 13.8327 0
1 50.44 13.1047 0
1 51.701 13.8327 0
1 52.962 13.1047 0
1 54.223 13.8327 0
1 55.484 13.1047 0
1 56.745 13.8327 0
1 8.827 15.2888 0
1 10.088 16.0169 0
1 11.349 15.2888 0
1 12.61 16.0169 0
1 13.871 15.2888 0
1 15.132 16.0169 0
1 16.393 15.2888 0
1 17.654 16.0169 0
1 18.915 15.2888 0
1 20.176 16.0169 0
1 21.437 15.2888 0
1 22.698 16.0169 0
1 23.959 15.2888 0
1 25.22 16.0169 0
1 26.481 15.2888 0
1 27.742 16.0169 0
1 29.003 15.2888 0
1 30.264 16.0169 0
1 31.525 15.2888 0
1 32.786 16.0169 0
1 34.047 15.2888 0
1 35.308 16.0169 0
1 36.569 15.2888 0
1 37.83 16.0169 0
1 39.091 15.2888 0
1 40.352 16.0169 0
1 41.613 15.2888 0
1 42.874 16.0169 0
1 44.135 15.2888 0
1 45.396 16.0169 0
1 46.657 15.2888 0
1 47.918 16.0169 0
1 49.179 15.2888 0
1 50.44 16.0169 0
1 51.701 15.2888 0
1 52.962 16.0169 0
1 54.223 15.2888 0
1 55.484 16.0169 0
1 56.745 15.2888 0
1 58.006 16.0169 0
1 10.088 17.4729 0
1 11.349 18.201 0
1 12.61 17.4729 0
1 13.871 18.201 0
1 15.132 17.4729 0
1 16.393 18.201 0
1 17.654 17.4729 0
1 18.915 18.201 0
1 20.176 17.4729 0
1 21.437 18.201 0
1 22.698 17.4729 0
1 23.959 18.201 0
1 25.22 17.4729 0
1 26.481 18.201 0
1 27.742 17.4729 0
1 29.003 18.201 0
1 30.264 17.4729 0
1 31.525 18.201 0
1 32.786 17.4729 0
1 34.047 18.201 0
1 35.308 17.4729 0
1 36.569 18.201 0
1 37.83 17.4729 0
1 39.091 18.201 0
1 40.352 17.4729 0
1 41.613 18.201 0
1 42.874 17.4729 0
1 44.135 18.201 0
1 45.396 17.4729 0
1 46.657 18.201 0
1 47.918 17.4729 0
1 49.179 18.201 0
1 50.44 17.4729 0
1 51.701 18.201 0
1 52.962 17.4729 0
1 54.223 18.201 0
1 55.484 17.4729 0
1 56.745 18.201 0
1 58.006 17.4729 0
1 59.267 18.201 0
1 11.349 19.657 0
1 12.61 20.3851 0
1 13.871 19.657 0
1 15.132 20.3851 0
1 16.393 19.657 0
1 17.654 20.3851 0
1 18.915 19.657 0
1 20.176 20.3851 0
1 21.437 19.657 0
1 22.698 20.3851 0
1 23.959 19.657 0
1 25.22 20.3851 0
1 26.481 19.657 0
1 27.742 20.3851 0
1 29.003 19.657 0
1 30.264 20.3851 0
1 31.525 19.657 0
1 32.786 20.3851 0
1 34.047 19.657 0
1 35.308 20.3851 0
1 36.569 19.657 0
1 37.83 20.3851 0
1 39.091 19.657 0
1 40.352 20.3851 0
1 41.613 19.657 0
1 42.874 20.3851 0
1 44.135 19.657 0
1 45.396 20.3851 0
1 46.657 19.657 0
1 47.918 20.3851 0
1 49.179 19.657 0
1 50.44 20.3851 0
1 51.701 19.657 0
1 52.962 20.3851 0
1 54.223 19.657 0
1 55.484 20.3851 0
1 56.745 19.657 0
1 58.006 20.3851 0
1 59.267 19.657 0
1 60.528 20.3851 0
1 12.61 21.8412 0
1 13.871 22.5692 0
1 15.132 21.8412 0
1 16.393 22.5692 0
1 17.654 21.8412 0
1 18.915 22.5692 0
1 20.176 21.8412 0
1 21.437 22.5692 0
1 22.698 21.8412 0
1 23.959 22.5692 0
1 25.22 21.8412 0
1 26.481 22.5692 0
1 27.742 21.8412 0
1 29.003 22.5692 0
1 30.264 21.8412 0
1 31.525 22.5692 0
1 32.786 21.8412 0
1 34.047 22.5692 0
1 35.308 21.8412 0
1 36.569 22.5692 0
1 37.83 21.8412 0
1 39.091 22.5692 0
1 40.352 21.8412 0
1 41.613 22.5692 0
1 42.874 21.8412 0
1 44.135 22.5692 0
1 45.396 21.8412 0
1 46.657 22.5692 0
1 47.918 21.8412 0
1 49.179 22.5692 0
1 50.44 21.8412 0
1 51.701 22.5692 0
1 52.962 21.8412 0
1 54.223 22.5692 0
1 55.484 21.8412 0
1 56.745 22.5692 0
1 58.006 21.8412 0
1 59.267 22.5692 0
1 60.528 21.8412 0
1 61.789 22.5692 0
1 13.871 24.0253 0
1 15.132 24.7533 0
1 16.393 24.0253 0
1 17.654 24.7533 0
1 18.915 24.0253 0
1 20.176 24.7533 0
1 21.437 24.0253 0
1 22.698 24.7533 0
1 23.959 24.0253 0
1 25.22 24.7533 0
1 26.481 24.0253 0
1 27.742 24.7533 0
1 29.003 24.0253 0
1 30.264 24.7533 0
1 31.525 24.0253 0
1 32.786 24.7533 0
1 34.047 24.0253 0
1 35.308 24.7533 0
1 36.569 24.0253 0
1 37.83 24.7533 0
1 39.091 24.0253 0
1 40.352 24.7533 0
1 41.613 24.0253 0
1 42.874 24.7533 0
1 44.135 24.0253 0
1 45.396 24.7533 0
1 46.657 24.0253 0
1 47.918 24.7533 0
1 49.179 24.0253 0
1 50.44 24.7533 0
1 51.701 24.0253 0
1 52.962 24.7533 0
1 54.223 24.0253 0
1 55.484 24.7533 0
1 56.745 24.0253 0
1 58.006 24.7533 0
1 59.267 24.0253 0
1 60.528 24.7533 0
1 61.789 24.0253 0
1 63.05 24.7533 0
1 15.132 26.2094 0
1 16.393 26.9374 0
1 17.654 26.2094 0
1 18.915 26.9374 0
1 20.176 26.2094 0
1 21.437 26.9374 0
1 22.698 26.2094 0
1 23.959 26.9374 0
1 25.22 26.2094 0
1 26.481 26.9374 0
1 27.742 26.2094 0
1 29.003 26.9374 0
1 30.264 26.2094 0
1 31.525 26.9374 0
1 32.786 26.2094 0
1 34.047 26.9374 0
1 35.308 26.2094 0
1 36.569 26.9374 0
1 37.83 26.2094 0
1 39.091 26.9374 0
1 40.352 26.2094 0
1 41.613 26.9374 0
1 42.874 26.2094 0
1 44.135 26.9374 0
1 45.396 26.2094 0
1 46.657 26.9374 0
1 47.918 26.2094 0
1 49.179 26.9374 0
1 50.44 26.2094 0
1 51.701 26.9374 0
1 52.962 26.2094 0
1 54.223 26.9374 0
1 55.484 26.2094 0
1 56.745 26.9374 0
1 58.006 26.2094 0
1 59.267 26.9374 0
1 60.528 26.2094 0
1 61.789 26.9374 0
1 63.05 26.2094 0
1 64.311 26.9374 0
1 16.393 28.3935 0
1 17.654 29.1215 0
1 18.915 28.3935 0
1 20.176 29.1215 0
1 21.437 28.3935 0
1 22.698 29.1215 0
1 23.959 28.3935 0
1 25.22 29.1215 0
1 26.481 28.3935 0
1 27.742 29.1215 0
1 29.003 28.3935 0
1 30.264 29.1215 0
1 31.525 28.3935 0
1 32.786 29.1215 0
1 34.047 28.3935 0
1 35.308 29.1215 0
1 36.569 28.3935 0
1 37.83 29.1215 0
1 39.091 28.3935 0
1 40.352 29.1215 0
1 41.613 28.3935 0
1 42.874 29.1215 0
1 44.135 28.3935 0
1 45.396 29.1215 0
1 46.657 28.3935 0
1 47.918 29.1215 0
1 49.179 28.3935 0
1 50.44 29.1215 0
1 51.701 28.3935 0
1 52.962 29.1215 0
1 54.223 28.3935 0
1 55.484 29.1215 0
1 56.745 28.3935 0
1 58.006 29.1215 0
1 59.267 28.3935 0
1 60.528 29.1215 0
1 61.789 28.3935 0
1 63.05 29.1215 0
1 64.311 28.3935 0
1 65.572 29.1215 0
1 17.654 30.5776 0
1 18.915 31.3057 0
1 20.176 30.5776 0
1 21.437 31.3057 0
1 22.698 30.5776 0
1 23.959 31.3057 0
1 25.22 30.5776 0
1 26.481 31.3057 0
1 27.742 30.5776 0
1 29.003 31.3057 0
1 30.264 30.5776 0
1 31.525 31.3057 0
1 32.786 30.5776 0
1 34.047 31.3057 0
1 35.308 30.5776 0
1 36.569 31.3057 0
1 37.83 30.5776 0
1 39.091 31.3057 0
1 40.352 30.5776 0
1 41.613 31.3057 0
1 42.874 30.5776 0
1 44.135 31.3057 0
1 45.396 30.5776 0
1 46.657 31.3057 0
1 47.918 30.5776 0
1 49.179 31.3057 0
1 50.44 30.5776 0
1 51.701 31.3057 0
1 52.962 30.5776 0
1 54.223 31.3057 0
1 55.484 30.5776 0
1 56.745 31.3057 0
1 58.006 30.5776 0
1 59.267 31.3057 0
1 60.528 30.5776 0
1 61.789 31.3057 0
1 63.05 30.5776 0
1 64.311 31.3057 0
1 65.572 30.5776 0
1 66.833 31.3057 0
1 18.915 32.7617 0
1 20.176 33.4898 0
1 21.437 32.7617 0
1 22.698 33.4898 0
1 23.959 32.7617 0
1 25.22 33.4898 0
1 26.481 32.7617 0
1 27.742 33.4898 0
1 29.003 32.7617 0
1 30.264 33.4898 0
1 31.525 32.7617 0
1 32.786 33.4898 0
1 34.047 32.7617 0
1 35.308 33.4898 0
1 36.569 32.7617 0
1 37.83 33.4898 0
1 39.091 32.7617 0
1 40.352 33.4898 0
1 41.613 32.7617 0
1 42.874 33.4898 0
1 44.135 32.7617 0
1 45.396 33.4898 0
1 46.657 32.7617 0
1 47.918 33.4898 0
1 49.179 32.7617 0
1 50.44 33.4898 0
1 51.701 32.7617 0
1 52.962 33.4898 0
1 54.223 32.7617 0
1 55.484 33.4898 0
1 56.745 32.7617 0
1 58.006 33.4898 0
1 59.267 32.7617 0
1 60.528 33.4898 0
1 61.789 32.7617 0
1 63.05 33.4898 0
1 64.311 32.7617 0
1 65.572 33.4898 0
1 66.833 32.7617 0
1 68.094 33.4898 0
1 20.176 34.9459 0
1 21.437 35.6739 0
1 22.698 34.9459 0
1 23.959 35.6739 0
1 25.22 34.9459 0
1 26.481 35.6739 0
1 27.742 34.9459 0
1 29.003 35.6739 0
1 30.264 34.9459 0
1 31.525 35.6739 0
1 32.786 34.9459 0
1 34.047 35.6739 0
1 35.308 34.9459 0
1 36.569 35.6739 0
1 37.83 34.9459 0
1 39.091 35.6739 0
1 40.352 34.9459 0
1 41.613 35.6739 0
1 42.874 34.9459 0
1 44.135 35.6739 0
1 45.396 34.9459 0
1 46.657 35.6739 0
1 47.918 34.9459 0
1 49.179 35.6739 0
1 50.44 34.9459 0
1 51.701 35.6739 0
1 52.962 34.9459 0
1 54.223 35.6739 0
1 55.484 34.9459 0
1 56.745 35.6739 0
1 58.006 34.9459 0
1 59.267 35.6739 0
1 60.528 34.9459 0
1 61.789 35.6739 0
1 63.05 34.9459 0
1 64.311 35.6739 0
1 65.572 34.9459 0
1 66.833 35.6739 0
1 68.094 34.9459 0
1 69.355 35.6739 0
1 21.437 37.13 0
1 22.698 37.858 0
1 23.959 37.13 0
1 25.22 37.858 0
1 26.481 37.13 0
1 27.742 37.858 0
1 29.003 37.13 0
1 30.264 37.858 0
1 31.525 37.13 0
1 32.786 37.858 0
1 34.047 37.13 0
1 35.308 37.858 0
1 36.569 37.13 0
1 37.83 37.858 0
1 39.091 37.13 0
1 40.352 37.858 0
1 41.613 37.13 0
1 42.874 37.858 0
1 44.135 37.13 0
1 45.396 37.858 0
1 46.657 37.13 0
1 47.918 37.858 0
1 49.179 37.13 0
1 50.44 37.858 0
1 51.701 37.13 0
1 52.962 37.858 0
1 54.223 37.13 0
1 55.484 37.858 0
1 56.745 37.13 0
1 58.006 37.858 0
1 59.267 37.13 0
1 60.528 37.858 0
1 61.789 37.13 0
1 63.05 37.858 0
1 64.311 37.13 0
1 65.572 37.858 0
1 66.833 37.13 0
1 68.094 37.858 0
1 69.355 37.13 0
1 70.616 37.858 0
1 22.698 39.3141 0
1 23.959 40.0421 0
1 25.22 39.3141 0
1 26.481 40.0421 0
1 27.742 39.3141 0
1 29.003 40.0421 0
1 30.264 39.3141 0
1 31.525 40.0421 0
1 32.786 39.3141 0
1 34.047 40.0421 0
1 35.308 39.3141 0
1 36.569 40.0421 0
1 37.83 39.3141 0
1 39.091 40.0421 0
1 40.352 39.3141 0
1 41.613 40.0421 0
1 42.874 39.3141 0
1 44.135 40.0421 0
1 45.396 39.3141 0
1 46.657 40.0421 0
1 47.918 39.3141 0
1 49.179 40.0421 0
1 50.44 39.3141 0
1 51.701 40.0421 0
1 52.962 39.3141 0
1 54.223 40.0421 0
1 55.484 39.3141 0
1 56.745 40.0421 0
1 58.006 39.3141 0
1 59.267 40.0421 0
1 60.528 39.3141 0
1 61.789 40.0421 0
1 63.05 39.3141 0
1 64.311 40.0421 0
1 65.572 39.3141 0
1 66.833 40.0421 0
1 68.094 39.3141 0
1 69.355 40.0421 0
1 70.616 39.3141 0
1 71.877 40.0421 0
1 23.959 41.4982 0
1 25.22 42.2262 0
1 26.481 41.4982 0
1 27.742 42.2262 0
1 29.003 41.4982 0
1 30.264 42.2262 0
1 31.525 41.4982 0
1 32.786 42.2262 0
1 34.047 41.4982 0
1 35.308 42.2262 0
1 36.569 41.4982 0
1 37.83 42.2262 0
1 39.091 41.4982 0
1 40.352 42.2262 0
1 41.613 41.4982 0
1 42.874 42.2262 0
1 44.135 41.4982 0
1 45.396 42.2262 0
1 46.657 41.4982 0
1 47.918 42.2262 0
1 49.179 41.4982 0
1 50.44 42.2262 0
1 51.701 41.4982 0
1 52.962 42.2262 0
1 54.223 41.4982 0
1 55.484 42.2262 0
1 56.745 41.4982 0
1 58.006 42.2262 0
1 59.267 41.4982 0
1 60.528 42.2262 0
1 61.789 41.4982 0
1 63.05 42.2262 0
1 64.311 41.4982 0
1 65.572 42.2262 0
1 66.833 41.4982 0
1 68.094 42.2262 0
1 69.355 41.4982 0
1 70.616 42.2262 0
1 71.877 41.4982 0
1 73.138 42.2262 0
800
Atoms. Timestep: 50000
1 50.7877 -0.286793 0.24332
1 0.921153 0.369915 0.252752
1 2.17415 -0.267095 0.171941
1 3.43863 0.353076 0.107846
1 4.72194 -0.265481 -0.0279038
1 6.06356 0.376986 0.039846
1 7.30222 -0.279521 -0.0030921
1 8.63399 0.357808 0.00584549
1 9.85712 -0.307365 -0.0550327
1 11.1837 0.346705 -0.0123278
1 12.4343 -0.246572 -0.0223364
1 13.7611 0.399978 0.00984424
1 14.9644 -0.280711 0.033401
1 16.303 0.401544 0.0392644
1 17.5185 -0.260627 0.0992144
1 18.8956 0.423236 0.139087
1 20.098 -0.278931 0.209325
1 21.4349 0.390105 0.133205
1 22.669 -0.248161 0.144913
1 23.9658 0.424942 0.0718203
1 25.211 -0.329905 0.0865525
1 26.4991 0.411734 4.19928
1 27.752 -0.302773 4.18848
1 29.0604 0.42125 4.02005
1 30.3084 -0.286971 3.94198
1 31.6356 0.422913 3.81863
1 32.8674 -0.279772 3.84775
1 34.2282 0.372008 3.94305
1 35.4252 -0.275467 3.96558
1 36.7671 0.355385 3.99572
1 37.9841 -0.270145 4.10621
1 39.3087 0.368177 -0.00808671
1 66.1073 44.0278 0.0670574
1 41.8853 0.390703 0.200292
1 43.1116 -0.294877 0.250918
1 44.4172 0.381444 0.326201
1 71.2177 44.0099 0.30654
1 46.9936 0.415247 0.394101
1 48.2331 -0.281468 0.341162
1 49.5038 0.325155 0.344148
1 0.875869 1.97068 0.357359
1 2.18202 2.58392 0.404721
1 3.43273 1.9372 0.293612
1 4.78836 2.63417 0.264447
1 6.02362 1.96514 0.182928
1 7.32912 2.5454 0.182163
1 8.56437 1.94724 0.0907074
1 9.91269 2.61667 0.0328488
1 11.1131 1.94724 -0.0194113
1 12.4719 2.60797 -0.044886
1 13.6835 1.93748 0.00103224
1 15.0195 2.60352 4.21413
1 16.2605 1.98594 0.0143889
1 17.5877 2.61562 -0.0379717
1 18.7867 1.96292 0.00922906
1 20.1236 2.62538 4.15412
1 21.3745 1.92175 -0.0176551
1 22.6996 2.6435 -0.0580856
1 23.9141 1.92383 -0.0134372
1 25.2399 2.63447 4.07545
1 26.4676 1.90701 4.12055
1 27.7933 2.63692 3.98329
1 29.0218 1.90717 3.94484
1 30.3606 2.62549 3.80491
1 31.5932 1.91079 3.72782
1 32.9328 2.66246 3.7253
1 34.1346 1.92682 3.84117
1 35.4781 2.63022 3.86889
1 36.7071 1.94483 3.93862
1 38.0492 2.56566 4.08676
1 39.2639 1.9474 -0.00350805
1 40.6087 2.58084 0.0848724
1 41.8646 1.93794 0.174589
1 43.1617 2.5959 0.257735
1 44.3964 1.9083 0.378958
1 45.7123 2.62011 0.481972
1 46.9582 1.91801 0.443796
1 48.2166 2.58025 0.484578
1 49.5055 1.93738 0.45568
1 50.8059 2.61813 0.485773
1 53.3459 4.12555 0.545403
1 3.50722 4.85254 0.53872
1 4.75868 4.17624 0.406103
1 6.01742 4.79466 0.35852
1 7.26041 4.14612 0.283609
1 8.6568 4.85401 0.279421
1 9.8783 4.15078 0.139344
1 11.1752 4.80693 0.112878
1 12.4286 4.15926 0.052007
1 13.7137 4.862 4.18012
1 14.9713 4.17103 4.13832
1 16.2963 4.83625 4.10776
1 17.4893 4.12743 4.04205
1 18.8671 4.82576 3.99871
1 20.0932 4.13842 4.04457
1 21.4093 4.85135 4.00596
1 22.6219 4.11131 3.9897
1 23.9798 4.87629 3.91428
1 25.1952 4.0921 3.92818
1 26.509 4.84128 3.86921
1 27.7304 4.12495 3.87284
1 29.0633 4.84887 3.75797
1 30.2736 4.11956 3.74014
1 31.628 4.87442 3.64916
1 32.8681 4.14154 3.70528
1 34.207 4.83963 3.77465
1 35.4187 4.14583 3.86441
1 36.7289 4.87862 3.94037
1 37.9652 4.15878 4.03099
1 39.3113 4.81786 -0.0311081
1 40.5698 4.17067 0.0673711
1 41.9201 4.81703 0.14712
1 43.1343 4.14274 0.261191
1 44.4339 4.83159 0.388117
1 45.6759 4.12834 0.47544
1 46.9888 4.85128 0.530818
1 48.2438 4.12383 0.527655
1 49.5357 4.81567 0.59128
1 50.8298 4.19224 0.564638
1 52.0819 4.78597 0.587294
1 54.6805 6.33084 0.595037
1 4.75636 7.03099 0.533023
1 6.02074 6.31464 0.436343
1 7.33734 7.06762 0.352871
1 8.59251 6.36118 0.271139
1 9.86321 7.0543 0.199665
1 11.1487 6.35635 0.121008
1 12.4581 7.0559 4.19249
1 13.6924 6.3783 4.11556
1 15.0041 7.0515 4.01163
1 16.2162 6.33369 4.03288
1 17.5609 7.05746 4.01113
1 18.789 6.33662 4.00302
1 20.1668 7.07168 3.95601
1 21.3388 6.32006 3.94343
1 22.709 7.08796 3.81048
1 23.9058 6.32709 3.82606
1 25.2453 7.09154 3.72575
1 26.4607 6.3156 3.78013
1 27.8345 7.10651 3.63007
1 29.037 6.30783 3.67438
1 30.3642 7.0621 3.60261
1 31.5805 6.34449 3.59157
1 32.919 7.0879 3.63113
1 34.1521 6.31267 3.75615
1 35.4808 7.07192 3.87195
1 36.6727 6.35261 3.95281
1 38.0155 7.04455 4.10143
1 39.2236 6.36052 0.00378256
1 40.6053 7.06224 0.123262
1 41.8577 6.34369 0.195261
1 43.159 6.99899 0.29386
1 44.4007 6.33633 0.397823
1 45.7029 7.08499 0.514074
1 46.9607 6.36315 0.561854
1 48.2663 7.06719 0.649079
1 49.5254 6.39278 0.677753
1 50.8128 7.05048 0.705181
1 52.0825 6.3524 0.665695
1 53.4174 7.03824 0.639327
1 55.8864 8.54543 0.465107
1 6.06784 9.28292 0.381702
1 7.31364 8.56754 0.335778
1 8.59036 9.27083 0.240358
1 9.83443 8.5583 0.162837
1 11.1788 9.2825 4.1897
1 12.4266 8.56492 4.11438
1 13.7229 9.26216 3.99493
1 14.9568 8.55727 3.9521
1 16.2723 9.26174 3.83977
1 17.5012 8.54439 3.8666
1 18.8474 9.27741 3.81672
1 20.0338 8.5638 3.84999
1 21.4142 9.26864 3.69443
1 22.6132 8.5309 3.70558
1 23.9957 9.32149 3.57435
1 25.1951 8.53397 3.59328
1 26.5353 9.29419 3.50376
1 27.7554 8.53032 3.52744
1 29.0665 9.30337 3.49672
1 30.3055 8.50979 3.5368
1 31.6577 9.30279 3.59086
1 32.8594 8.54586 3.64038
1 34.1666 9.27063 3.76239
1 35.3917 8.54556 3.85864
1 36.7307 9.28542 3.98723
1 37.9547 8.54407 4.06752
1 39.3028 9.22292 0.0476248
1 40.4832 8.58878 0.145916
1 41.8465 9.25887 0.3092
1 43.0797 8.54773 0.357438
1 44.44 9.26705 0.463701
1 45.653 8.57599 0.568647
1 46.9642 9.25043 0.666505
1 48.198 8.55493 0.679166
1 49.5416 9.27066 0.675915
1 50.7774 8.56959 0.72447
1 52.1105 9.25511 0.700637
1 53.344 8.55 0.645302
1 54.6501 9.26714 0.522943
1 57.2091 10.8246 0.36
1 7.30073 11.4665 0.30402
1 8.5467 10.7892 0.239628
1 9.91227 11.4783 0.116482
1 11.1264 10.8306 4.18559
1 12.4149 11.4832 4.01213
1 13.6416 10.795 3.93602
1 15.0088 11.496 3.82358
1 16.2198 10.8146 3.81504
1 17.5984 11.4745 3.72335
1 18.7944 10.7897 3.7658
1 20.131 11.4694 3.70453
1 21.3218 10.7578 3.65577
1 22.7343 11.5086 3.54395
1 23.9114 10.7527 3.47423
1 25.2553 11.5296 3.36365
1 26.456 10.7041 3.38006
1 27.8054 11.5326 3.27787
1 29.0485 10.7045 3.36356
1 30.339 11.5257 3.42334
1 31.5628 10.7621 3.54488
1 32.9106 11.4886 3.65047
1 34.112 10.7558 3.75893
1 35.4651 11.4928 3.90591
1 36.6585 10.7629 3.97814
1 37.997 11.5001 4.10178
1 39.1914 10.7199 0.0683461
1 40.5814 11.5119 0.269398
1 41.765 10.7667 0.366443
1 43.1472 11.4823 0.502568
1 44.3491 10.7616 0.529383
1 45.6858 11.4661 0.62609
1 46.9029 10.7827 0.653402
1 48.2641 11.4534 0.645568
1 49.469 10.7935 0.657787
1 50.8481 11.5009 0.695903
1 52.0479 10.7677 0.685149
1 53.3922 11.4763 0.602671
1 54.6287 10.7456 0.497371
1 55.9351 11.4768 0.421679
1 58.4427 13.0121 0.225426
1 8.62263 13.6971 0.135705
1 9.84617 13.0631 0.0526271
1 11.163 13.6884 4.05792
1 12.3685 12.9909 3.93039
1 13.7313 13.6938 3.84269
1 14.9728 13.0189 3.78737
1 16.308 13.7102 3.68557
1 17.5148 12.9725 3.62247
1 18.879 13.6969 3.54407
1 20.0848 12.9903 3.6102
1 21.4313 13.6997 3.52296
1 22.6518 12.9833 3.51491
1 24.0179 13.7526 3.33812
1 25.1915 12.9257 3.26294
1 26.5542 13.7726 3.18379
1 27.7918 12.9651 3.23339
1 29.0682 13.7514 3.24955
1 30.3265 12.9387 3.38691
1 31.6379 13.7701 3.50496
1 32.8413 12.946 3.64718
1 34.1867 13.7279 3.77237
1 35.3817 12.9715 3.89022
1 36.7363 13.7192 4.05895
1 37.914 12.963 -0.0567574
1 39.3019 13.7309 0.0967386
1 40.4812 12.9517 0.253204
1 41.8396 13.7417 0.470103
1 43.0264 12.9388 0.52127
1 44.3906 13.718 0.638327
1 45.6158 12.9654 0.670031
1 46.9911 13.7103 0.67869
1 48.1847 12.9884 0.668331
1 49.5587 13.7049 0.682937
1 50.7529 12.9834 0.70505
1 52.121 13.6941 0.652682
1 53.3514 13.0036 0.621655
1 54.6542 13.6801 0.483932
1 55.9209 13.0262 0.416316
1 57.2071 13.7018 0.264843
1 59.7349 15.2495 0.0667748
1 9.8953 15.8911 4.10748
1 11.1044 15.258 3.98636
1 12.468 15.8948 3.88124
1 13.6765 15.2718 3.86101
1 15.0134 15.9233 3.77174
1 16.2075 15.2041 3.71293
1 17.5955 15.9236 3.6197
1 18.8079 15.2186 3.54448
1 20.139 15.9234 3.42084
1 21.3385 15.1685 3.39875
1 22.7269 15.9307 3.28342
1 23.9512 15.1796 3.23849
1 25.2618 15.9326 3.19434
1 26.5091 15.1798 3.19333
1 27.8202 15.9895 3.19409
1 29.0524 15.1822 3.22487
1 30.3864 15.9872 3.38565
1 31.6109 15.1525 3.50144
1 32.9169 15.9561 3.69335
1 34.107 15.1813 3.81377
1 35.4786 15.9164 3.98528
1 36.6551 15.1786 4.13763
1 38.0075 15.95 0.1138
1 39.1977 15.1859 0.17057
1 40.5753 15.9399 0.329084
1 41.7469 15.1867 0.459288
1 43.144 15.937 0.581329
1 44.3206 15.1704 0.63747
1 45.6853 15.9307 0.611438
1 46.8839 15.2154 0.612502
1 48.2447 15.926 0.665248
1 49.4458 15.2025 0.600633
1 50.8449 15.9148 0.568453
1 52.0486 15.2057 0.598475
1 53.3891 15.8916 0.50644
1 54.5966 15.2091 0.436392
1 55.9484 15.8932 0.263749
1 57.1812 15.2353 0.200463
1 58.5099 15.9138 0.0913862
1 61.0123 17.4486 4.05156
1 11.1776 18.09 3.97393
1 12.408 17.4481 3.91449
1 13.7355 18.1085 3.82328
1 14.9734 17.447 3.73632
1 16.2993 18.1166 3.66824
1 17.5323 17.4264 3.6086
1 18.8363 18.1661 3.47732
1 20.0802 17.4203 3.36468
1 21.44 18.1461 3.26556
1 22.6302 17.4405 3.23561
1 23.9862 18.1589 3.16736
1 25.2019 17.4259 3.16352
1 26.5699 18.1551 3.17704
1 27.781 17.3987 3.21489
1 29.118 18.1727 3.33541
1 30.3379 17.3998 3.44914
1 31.6585 18.1706 3.52981
1 32.8688 17.3978 3.65291
1 34.2339 18.176 3.821
1 35.3967 17.4083 3.94295
1 36.7465 18.1612 4.10417
1 37.9467 17.4045 0.112477
1 39.2981 18.1511 0.192578
1 40.4755 17.383 0.300499
1 41.8486 18.1573 0.494339
1 43.0557 17.4078 0.584311
1 44.4173 18.1425 0.613169
1 45.5996 17.4262 0.592119
1 46.9881 18.1643 0.655509
1 48.1712 17.3993 0.70825
1 49.5355 18.1281 0.689977
1 50.7519 17.4244 0.612202
1 52.1101 18.1433 0.583968
1 53.3006 17.429 0.531755
1 54.6629 18.1323 0.398433
1 55.8851 17.4617 0.307589
1 57.2182 18.1128 0.222273
1 58.4284 17.4643 0.105272
1 59.7886 18.101 -0.0305653
1 11.1217 19.6741 3.98459
1 12.4331 20.3451 3.93123
1 13.7045 19.6806 3.84668
1 14.9957 20.3475 3.77404
1 16.2208 19.6523 3.63616
1 17.5908 20.3621 3.55932
1 18.8222 19.6625 3.45405
1 20.1374 20.3771 3.38775
1 21.3877 19.6291 3.28595
1 22.7018 20.3718 3.20745
1 23.9276 19.63 3.17866
1 25.2487 20.3643 3.22421
1 26.475 19.6361 3.26341
1 27.8205 20.3529 3.33409
1 29.0287 19.6332 3.3358
1 30.405 20.3585 3.37703
1 31.5873 19.6266 3.48686
1 32.9468 20.3638 3.59259
1 34.1322 19.6043 3.76432
1 35.523 20.3805 3.9059
1 36.6631 19.629 4.09087
1 38.0254 20.3503 0.0515309
1 39.2427 19.6184 0.162354
1 40.562 20.3695 0.302358
1 41.7558 19.622 0.458259
1 43.1155 20.3393 0.508409
1 44.327 19.6228 0.591548
1 45.6882 20.3711 0.663952
1 46.8993 19.6373 0.685033
1 48.2392 20.3696 0.725741
1 49.453 19.64 0.750033
1 50.8227 20.3842 0.667386
1 52.0293 19.6248 0.582239
1 53.3764 20.3283 0.476442
1 54.6096 19.6679 0.402213
1 55.9412 20.3137 0.275631
1 57.1583 19.648 0.198004
1 58.4968 20.3232 0.0866456
1 59.7593 19.6779 -0.00829512
1 61.0411 20.3224 -0.0890011
1 63.5997 21.8822 4.01797
1 13.7378 22.5086 3.95774
1 14.9602 21.8599 3.8185
1 16.3002 22.5265 3.71433
1 17.5428 21.8893 3.60753
1 18.8388 22.5356 3.51666
1 20.1067 21.8924 3.4178
1 21.4043 22.5829 3.36653
1 22.6524 21.883 3.27483
1 23.9539 22.5602 3.28017
1 25.2078 21.8531 3.2581
1 26.5431 22.5686 3.25019
1 27.7478 21.8257 3.35228
1 29.1078 22.5491 3.34926
1 30.3412 21.8393 3.413
1 31.6676 22.5346 3.48881
1 32.8783 21.8319 3.58924
1 34.2373 22.5424 3.69803
1 35.4281 21.8101 3.84644
1 36.7819 22.5772 4.03106
1 37.9566 21.8247 0.0227047
1 39.3192 22.5741 0.156032
1 40.521 21.8349 0.277032
1 41.8628 22.5875 0.337229
1 43.072 21.8062 0.443568
1 44.4076 22.5939 0.507838
1 45.6297 21.8348 0.609595
1 46.9593 22.573 0.699133
1 48.1914 21.8334 0.746464
1 49.5507 22.565 0.75829
1 50.7858 21.8779 0.70471
1 52.0809 22.5492 0.64125
1 53.3299 21.872 0.529174
1 54.6604 22.5636 0.498173
1 55.8924 21.8903 0.355508
1 57.2165 22.5248 0.250962
1 58.4501 21.9287 0.128608
1 59.7757 22.5328 0.141583
1 61.0057 21.8576 -0.0333021
1 62.3618 22.5214 4.11021
1 64.8304 24.1411 4.03034
1 14.9978 24.7666 3.93486
1 16.2355 24.1274 3.81205
1 17.537 24.7739 3.70191
1 18.789 24.105 3.56094
1 20.1301 24.7657 3.53627
1 21.4028 24.0888 3.44648
1 22.6767 24.76 3.39353
1 23.9527 24.0683 3.32524
1 25.212 24.7855 3.29756
1 26.4742 24.0921 3.27787
1 27.7934 24.7627 3.34741
1 29.0302 24.0703 3.36803
1 30.3511 24.7352 3.36429
1 31.5793 24.0735 3.49936
1 32.9404 24.7449 3.56665
1 34.1411 24.0614 3.6641
1 35.5321 24.7384 3.8036
1 36.7131 24.0344 3.96428
1 38.0248 24.7566 4.07053
1 39.2205 24.0598 0.0856422
1 40.6212 24.7824 0.170632
1 41.797 24.0734 0.275222
1 43.1466 24.7687 0.375365
1 44.3592 24.0496 0.500637
1 45.7043 24.7787 0.566256
1 46.9428 24.0525 0.6789
1 48.2377 24.7598 0.642893
1 49.5193 24.1215 0.751301
1 50.7901 24.7819 0.770333
1 52.042 24.0804 0.705567
1 53.4065 24.7563 0.693135
1 54.6362 24.1022 0.617965
1 55.9547 24.7386 0.527008
1 57.1812 24.05 0.401399
1 58.5157 24.7574 0.368117
1 59.7633 24.0721 0.271377
1 61.0123 24.7403 0.178608
1 62.2782 24.1363 0.00193646
1 63.5858 24.7817 -0.0187984
1 14.977 26.2889 4.09728
1 16.2973 26.9465 3.94731
1 17.5545 26.3396 3.78905
1 18.8371 26.959 3.74697
1 20.1243 26.3356 3.59676
1 21.3665 26.9562 3.51964
1 22.6914 26.3681 3.42523
1 23.9572 26.9693 3.36289
1 25.2181 26.2863 3.32703
1 26.5087 26.972 3.33458
1 27.7707 26.2774 3.36055
1 29.0887 26.9696 3.37878
1 30.288 26.2521 3.38103
1 31.6565 26.9836 3.42834
1 32.8753 26.257 3.51011
1 34.2375 26.9669 3.66135
1 35.3833 26.2663 3.76827
1 36.7626 26.99 3.89012
1 37.939 26.2618 4.01126
1 39.3295 26.9598 -0.0349668
1 40.5124 26.2969 0.0890557
1 41.8711 26.947 0.168506
1 43.0876 26.2792 0.304592
1 44.4497 26.9775 0.398933
1 45.6613 26.2869 0.510603
1 47.0023 26.9612 0.557862
1 48.2292 26.2875 0.640727
1 49.5859 26.989 0.752827
1 50.7973 26.3121 0.814148
1 52.0875 26.9637 0.772832
1 53.3297 26.3079 0.712011
1 54.6847 26.9709 0.695061
1 55.9299 26.2836 0.568089
1 57.2264 26.9448 0.531918
1 58.4675 26.2988 0.445046
1 59.7592 26.9749 0.373002
1 61.015 26.2816 0.247297
1 62.3344 26.9583 0.212195
1 63.6048 26.3086 0.108757
1 64.9102 26.9335 0.0713945