1099
Atoms. Timestep: 0
1 0 0 0
1 1.993 1.993 0
1 1.993 0 1.993
1 0 1.993 1.993
1 3.986 0 0
1 5.979 1.993 0
1 5.979 0 1.993
1 3.986 1.993 1.993
1 7.972 0 0
1 9.965 1.993 0
1 9.965 0 1.993
1 7.972 1.993 1.993
1 11.958 0 0
1 13.951 1.993 0
1 13.951 0 1.993
1 11.958 1.993 1.993
1 15.944 0 0
1 17.937 1.993 0
1 17.937 0 1.993
1 15.944 1.993 1.993
1 19.93 0 0
1 21.923 1.993 0
1 21.923 0 1.993
1 19.93 1.993 1.993
1 23.916 0 0
1 23.916 1.993 1.993
1 0 3.986 0
1 1.993 5.979 0
1 1.993 3.986 1.993
1 0 5.979 1.993
1 3.986 3.986 0
1 5.979 5.979 0
1 5.979 3.986 1.993
1 3.986 5.979 1.993
1 7.972 3.986 0
1 9.965 5.979 0
1 9.965 3.986 1.993
1 7.972 5.979 1.993
1 11.958 3.986 0
1 13.951 5.979 0
1 13.951 3.986 1.993
1 11.958 5.979 1.993
1 15.944 3.986 0
1 17.937 5.979 0
1 17.937 3.986 1.993
1 15.944 5.979 1.993
1 19.93 3.986 0
1 21.923 5.979 0
1 21.923 3.986 1.993
1 19.93 5.979 1.993
1 23.916 3.986 0
1 23.916 5.979 1.993
1 0 7.972 0
1 1.993 9.965 0
1 1.993 7.972 1.993
1 0 9.965 1.993
1 3.986 7.972 0
1 5.979 9.965 0
1 5.979 7.972 1.993
1 3.986 9.965 1.993
1 7.972 7.972 0
1 9.965 9.965 0
1 9.965 7.972 1.993
1 7.972 9.965 1.993
1 11.958 7.972 0
1 13.951 9.965 0
1 13.951 7.972 1.993
1 11.958 9.965 1.993
1 15.944 7.972 0
1 17.937 9.965 0
1 17.937 7.972 1.993
1 15.944 9.965 1.993
1 19.93 7.972 0
1 21.923 9.965 0
1 21.923 7.972 1.993
1 19.93 9.965 1.993
1 23.916 7.972 0
1 23.916 9.965 1.993
1 0 11.958 0
1 1.993 13.951 0
1 1.993 11.958 1.993
1 0 13.951 1.993
1 3.986 11.958 0
1 5.979 13.951 0
1 5.979 11.958 1.993
1 3.986 13.951 1.993
1 7.972 11.958 0
1 9.965 13.951 0
1 9.965 11.958 1.993
1 7.972 13.951 1.993
1 11.958 11.958 0
1 13.951 13.951 0
1 13.951 11.958 1.993
1 11.958 13.951 1.993
1 15.944 11.958 0
1 17.937 13.951 0
1 17.937 11.958 1.993
1 15.944 13.951 1.993
1 19.93 11.958 0
1 21.923 13.951 0
1 21.923 11.958 1.993
1 19.93 13.951 1.993
1 23.916 11.958 0
1 23.916 13.951 1.993
1 0 15.944 0
1 1.993 17.937 0
1 1.993 15.944 1.993
1 0 17.937 1.993
1 3.986 15.944 0
1 5.979 17.937 0
1 5.979 15.944 1.993
1 3.986 17.937 1.993
1 7.972 15.944 0
1 9.965 17.937 0
1 9.965 15.944 1.993
1 7.972 17.937 1.993
1 11.958 15.944 0
1 13.951 17.937 0
1 13.951 15.944 1.993
1 11.958 17.937 1.993
1 15.944 15.944 0
1 17.937 17.937 0
1 17.937 15.944 1.993
1 15.944 17.937 1.993
1 19.93 15.944 0
1 21.923 17.937 0
1 21.923 15.944 1.993
1 19.93 17.937 1.993
1 23.916 15.944 0
1 23.916 17.937 1.993
1 0 19.93 0
1 1.993 21.923 0
1 1.993 19.93 1.993
1 0 21.923 1.993
1 3.986 19.93 0
1 5.979 21.923 0
1 5.979 19.93 1.993
1 3.986 21.923 1.993
1 7.972 19.93 0
1 9.965 21.923 0
1 9.965 19.93 1.993
1 7.972 21.923 1.993
1 11.958 19.93 0
1 13.951 21.923 0
1 13.951 19.93 1.993
1 11.958 21.923 1.993
1 15.944 19.93 0
1 17.937 21.923 0
1 17.937 19.93 1.993
1 15.944 21.923 1.993
1 19.93 19.93 0
1 21.923 21.923 0
1 21.923 19.93 1.993
1 19.93 21.923 1.993
1 23.916 19.93 0
1 23.916 21.923 1.993
1 0 23.916 0
1 1.993 23.916 1.993
1 3.986 23.916 0
1 5.979 23.916 1.993
1 7.972 23.916 0
1 9.965 23.916 1.993
1 11.958 23.916 0
1 13.951 23.916 1.993
1 15.944 23.916 0
1 17.937 23.916 1.993
1 19.93 23.916 0
1 21.923 23.916 1.993
1 23.916 23.916 0
1 0 0 3.986
1 1.993 1.993 3.986
1 1.993 0 5.979
1 0 1.993 5.979
1 3.986 0 3.986
1 5.979 1.993 3.986
1 5.979 0 5.979
1 3.986 1.993 5.979
1 7.972 0 3.986
1 9.965 1.993 3.986
1 9.965 0 5.979
1 7.972 1.993 5.979
1 11.958 0 3.986
1 13.951 1.993 3.986
1 13.951 0 5.979
1 11.958 1.993 5.979
1 15.944 0 3.986
1 17.937 1.993 3.986
1 17.937 0 5.979
1 15.944 1.993 5.979
1 19.93 0 3.986
1 21.923 1.993 3.986
1 21.923 0 5.979
1 19.93 1.993 5.979
1 23.916 0 3.986
1 23.916 1.993 5.979
1 0 3.986 3.986
1 1.993 5.979 3.986
1 1.993 3.986 5.979
1 0 5.979 5.979
1 3.986 3.986 3.986
1 5.979 5.979 3.986
1 5.979 3.986 5.979
1 3.986 5.979 5.979
1 7.972 3.986 3.986
1 9.965 5.979 3.986
1 9.965 3.986 5.979
1 7.972 5.979 5.979
1 11.958 3.986 3.986
1 13.951 5.979 3.986
1 13.951 3.986 5.979
1 11.958 5.979 5.979
1 15.944 3.986 3.986
1 17.937 5.979 3.986
1 17.937 3.986 5.979
1 15.944 5.979 5.979
1 19.93 3.986 3.986
1 21.923 5.979 3.986
1 21.923 3.986 5.979
1 19.93 5.979 5.979
1 23.916 3.986 3.986
1 23.916 5.979 5.979
1 0 7.972 3.986
1 1.993 9.965 3.986
1 1.993 7.972 5.979
1 0 9.965 5.979
1 3.986 7.972 3.986
1 5.979 9.965 3.986
1 5.979 7.972 5.979
1 3.986 9.965 5.979
1 7.972 7.972 3.986
1 9.965 9.965 3.986
1 9.965 7.972 5.979
1 7.972 9.965 5.979
1 11.958 7.972 3.986
1 13.951 9.965 3.986
1 13.951 7.972 5.979
1 11.958 9.965 5.979
1 15.944 7.972 3.986
1 17.937 9.965 3.986
1 17.937 7.972 5.979
1 15.944 9.965 5.979
1 19.93 7.972 3.986
1 21.923 9.965 3.986
1 21.923 7.972 5.979
1 19.93 9.965 5.979
1 23.916 7.972 3.986
1 23.916 9.965 5.979
1 0 11.958 3.986
1 1.993 13.951 3.986
1 1.993 11.958 5.979
1 0 13.951 5.979
1 3.986 11.958 3.986
1 5.979 13.951 3.986
1 5.979 11.958 5.979
1 3.986 13.951 5.979
1 7.972 11.958 3.986
1 9.965 13.951 3.986
1 9.965 11.958 5.979
1 7.972 13.951 5.979
1 11.958 11.958 3.986
1 13.951 13.951 3.986
1 13.951 11.958 5.979
1 11.958 13.951 5.979
1 15.944 11.958 3.986
1 17.937 13.951 3.986
1 17.937 11.958 5.979
1 15.944 13.951 5.979
1 19.93 11.958 3.986
1 21.923 13.951 3.986
1 21.923 11.958 5.979
1 19.93 13.951 5.979
1 23.916 11.958 3.986
1 23.916 13.951 5.979
1 0 15.944 3.986
1 1.993 17.937 3.986
1 1.993 15.944 5.979
1 0 17.937 5.979
1 3.986 15.944 3.986
1 5.979 17.937 3.986
1 5.979 15.944 5.979
1 3.986 17.937 5.979
1 7.972 15.944 3.986
1 9.965 17.937 3.986
1 9.965 15.944 5.979
1 7.972 17.937 5.979
1 11.958 15.944 3.986
1 13.951 17.937 3.986
1 13.951 15.944 5.979
1 11.958 17.937 5.979
1 15.944 15.944 3.986
1 17.937 17.937 3.986
1 17.937 15.944 5.979
1 15.944 17.937 5.979
1 19.93 15.944 3.986
1 21.923 17.937 3.986
1 21.923 15.944 5.979
1 19.93 17.937 5.979
1 23.916 15.944 3.986
1 23.916 17.937 5.979
1 0 19.93 3.986
1 1.993 21.923 3.986
1 1.993 19.93 5.979
1 0 21.923 5.979
1 3.986 19.93 3.986
1 5.979 21.923 3.986
1 5.979 19.93 5.979
1 3.986 21.923 5.979
1 7.972 19.93 3.986
1 9.965 21.923 3.986
1 9.965 19.93 5.979
1 7.972 21.923 5.979
1 11.958 19.93 3.986
1 13.951 21.923 3.986
1 13.951 19.93 5.979
1 11.958 21.923 5.979
1 15.944 19.93 3.986
1 17.937 21.923 3.986
1 17.937 19.93 5.979
1 15.944 21.923 5.979
1 19.93 19.93 3.986
1 21.923 21.923 3.986
1 21.923 19.93 5.979
1 19.93 21.923 5.979
1 23.916 19.93 3.986
1 23.916 21.923 5.979
1 0 23.916 3.986
1 1.993 23.916 5.979
1 3.986 23.916 3.986
1 5.979 23.916 5.979
1 7.972 23.916 3.986
1 9.965 23.916 5.979
1 11.958 23.916 3.986
1 13.951 23.916 5.979
1 15.944 23.916 3.986
1 17.937 23.916 5.979
1 19.93 23.916 3.986
1 21.923 23.916 5.979
1 23.916 23.916 3.986
1 0 0 7.972
1 1.993 1.993 7.972
1 1.993 0 9.965
1 0 1.993 9.965
1 3.986 0 7.972
1 5.979 1.993 7.972
1 5.979 0 9.965
1 3.986 1.993 9.965
1 7.972 0 7.972
1 9.965 1.993 7.972
1 9.965 0 9.965
1 7.972 1.993 9.965
1 11.958 0 7.972
1 13.951 1.993 7.972
1 13.951 0 9.965
1 11.958 1.993 9.965
1 15.944 0 7.972
1 17.937 1.993 7.972
1 17.937 0 9.965
1 15.944 1.993 9.965
1 19.93 0 7.972
1 21.923 1.993 7.972
1 21.923 0 9.965
1 19.93 1.993 9.965
1 23.916 0 7.972
1 23.916 1.993 9.965
1 0 3.986 7.972
1 1.993 5.979 7.972
1 1.993 3.986 9.965
1 0 5.979 9.965
1 3.986 3.986 7.972
1 5.979 5.979 7.972
1 5.979 3.986 9.965
1 3.986 5.979 9.965
1 7.972 3.986 7.972
1 9.965 5.979 7.972
1 9.965 3.986 9.965
1 7.972 5.979 9.965
1 11.958 3.986 7.972
1 13.951 5.979 7.972
1 13.951 3.986 9.965
1 11.958 5.979 9.965
1 15.944 3.986 7.972
1 17.937 5.979 7.972
1 17.937 3.986 9.965
1 15.944 5.979 9.965
1 19.93 3.986 7.972
1 21.923 5.979 7.972
1 21.923 3.986 9.965
1 19.93 5.979 9.965
1 23.916 3.986 7.972
1 23.916 5.979 9.965
1 0 7.972 7.972
1 1.993 9.965 7.972
1 1.993 7.972 9.965
1 0 9.965 9.965
1 3.986 7.972 7.972
1 5.979 9.965 7.972
1 5.979 7.972 9.965
1 3.986 9.965 9.965
1 7.972 7.972 7.972
1 9.965 9.965 7.972
1 9.965 7.972 9.965
1 7.972 9.965 9.965
1 11.958 7.972 7.972
1 13.951 9.965 7.972
1 13.951 7.972 9.965
1 11.958 9.965 9.965
1 15.944 7.972 7.972
1 17.937 9.965 7.972
1 17.937 7.972 9.965
1 15.944 9.965 9.965
1 19.93 7.972 7.972
1 21.923 9.965 7.972
1 21.923 7.972 9.965
1 19.93 9.965 9.965
1 23.916 7.972 7.972
1 23.916 9.965 9.965
1 0 11.958 7.972
1 1.993 13.951 7.972
1 1.993 11.958 9.965
1 0 13.951 9.965
1 3.986 11.958 7.972
1 5.979 13.951 7.972
1 5.979 11.958 9.965
1 3.986 13.951 9.965
1 7.972 11.958 7.972
1 9.965 13.951 7.972
1 9.965 11.958 9.965
1 7.972 13.951 9.965
1 11.958 11.958 7.972
1 13.951 13.951 7.972
1 13.951 11.958 9.965
1 11.958 13.951 9.965
1 15.944 11.958 7.972
1 17.937 13.951 7.972
1 17.937 11.958 9.965
1 15.944 13.951 9.965
1 19.93 11.958 7.972
1 21.923 13.951 7.972
1 21.923 11.958 9.965
1 19.93 13.951 9.965
1 23.916 11.958 7.972
1 23.916 13.951 9.965
1 0 15.944 7.972
1 1.993 17.937 7.972
1 1.993 15.944 9.965
1 0 17.937 9.965
1 3.986 15.944 7.972
1 5.979 17.937 7.972
1 5.979 15.944 9.965
1 3.986 17.937 9.965
1 7.972 15.944 7.972
1 9.965 17.937 7.972
1 9.965 15.944 9.965
1 7.972 17.937 9.965
1 11.958 15.944 7.972
1 13.951 17.937 7.972
1 13.951 15.944 9.965
1 11.958 17.937 9.965
1 15.944 15.944 7.972
1 17.937 17.937 7.972
1 17.937 15.944 9.965
1 15.944 17.937 9.965
1 19.93 15.944 7.972
1 21.923 17.937 7.972
1 21.923 15.944 9.965
1 19.93 17.937 9.965
1 23.916 15.944 7.972
1 23.916 17.937 9.965
1 0 19.93 7.972
1 1.993 21.923 7.972
1 1.993 19.93 9.965
1 0 21.923 9.965
1 3.986 19.93 7.972
1 5.979 21.923 7.972
1 5.979 19.93 9.965
1 3.986 21.923 9.965
1 7.972 19.93 7.972
1 9.965 21.923 7.972
1 9.965 19.93 9.965
1 7.972 21.923 9.965
1 11.958 19.93 7.972
1 13.951 21.923 7.972
1 13.951 19.93 9.965
1 11.958 21.923 9.965
1 15.944 19.93 7.972
1 17.937 21.923 7.972
1 17.937 19.93 9.965
1 15.944 21.923 9.965
1 19.93 19.93 7.972
1 21.923 21.923 7.972
1 21.923 19.93 9.965
1 19.93 21.923 9.965
1 23.916 19.93 7.972
1 23.916 21.923 9.965
1 0 23.916 7.972
1 1.993 23.916 9.965
1 3.986 23.916 7.972
1 5.979 23.916 9.965
1 7.972 23.916 7.972
1 9.965 23.916 9.965
1 11.958 23.916 7.972
1 13.951 23.916 9.965
1 15.944 23.916 7.972
1 17.937 23.916 9.965
1 19.93 23.916 7.972
1 21.923 23.916 9.965
1 23.916 23.916 7.972
1 0 0 11.958
1 1.993 1.993 11.958
1 1.993 0 13.951
1 0 1.993 13.951
1 3.986 0 11.958
1 5.979 1.993 11.958
1 5.979 0 13.951
1 3.986 1.993 13.951
1 7.972 0 11.958
1 9.965 1.993 11.958
1 9.965 0 13.951
1 7.972 1.993 13.951
1 11.958 0 11.958
1 13.951 1.993 11.958
1 13.951 0 13.951
1 11.958 1.993 13.951
1 15.944 0 11.958
1 17.937 1.993 11.958
1 17.937 0 13.951
1 15.944 1.993 13.951
1 19.93 0 11.958
1 21.923 1.993 11.958
1 21.923 0 13.951
1 19.93 1.993 13.951
1 23.916 0 11.958
1 23.916 1.993 13.951
1 0 3.986 11.958
1 1.993 5.979 11.958
1 1.993 3.986 13.951
1 0 5.979 13.951
1 3.986 3.986 11.958
1 5.979 5.979 11.958
1 5.979 3.986 13.951
1 3.986 5.979 13.951
1 7.972 3.986 11.958
1 9.965 5.979 11.958
1 9.965 3.986 13.951
1 7.972 5.979 13.951
1 11.958 3.986 11.958
1 13.951 5.979 11.958
1 13.951 3.986 13.951
1 11.958 5.979 13.951
1 15.944 3.986 11.958
1 17.937 5.979 11.958
1 17.937 3.986 13.951
1 15.944 5.979 13.951
1 19.93 3.986 11.958
1 21.923 5.979 11.958
1 21.923 3.986 13.951
1 19.93 5.979 13.951
1 23.916 3.986 11.958
1 23.916 5.979 13.951
1 0 7.972 11.958
1 1.993 9.965 11.958
1 1.993 7.972 13.951
1 0 9.965 13.951
1 3.986 7.972 11.958
1 5.979 9.965 11.958
1 5.979 7.972 13.951
1 3.986 9.965 13.951
1 7.972 7.972 11.958
1 9.965 9.965 11.958
1 9.965 7.972 13.951
1 7.972 9.965 13.951
1 11.958 7.972 11.958
1 13.951 9.965 11.958
1 13.951 7.972 13.951
1 11.958 9.965 13.951
1 15.944 7.972 11.958
1 17.937 9.965 11.958
1 17.937 7.972 13.951
1 15.944 9.965 13.951
1 19.93 7.972 11.958
1 21.923 9.965 11.958
1 21.923 7.972 13.951
1 19.93 9.965 13.951
1 23.916 7.972 11.958
1 23.916 9.965 13.951
1 0 11.958 11.958
1 1.993 13.951 11.958
1 1.993 11.958 13.951
1 0 13.951 13.951
1 3.986 11.958 11.958
1 5.979 13.951 11.958
1 5.979 11.958 13.951
1 3.986 13.951 13.951
1 7.972 11.958 11.958
1 9.965 13.951 11.958
1 9.965 11.958 13.951
1 7.972 13.951 13.951
1 11.958 11.958 11.958
1 13.951 13.951 11.958
1 13.951 11.958 13.951
1 11.958 13.951 13.951
1 15.944 11.958 11.958
1 17.937 13.951 11.958
1 17.937 11.958 13.951
1 15.944 13.951 13.951
1 19.93 11.958 11.958
1 21.923 13.951 11.958
1 21.923 11.958 13.951
1 19.93 13.951 13.951
1 23.916 11.958 11.958
1 23.916 13.951 13.951
1 0 15.944 11.958
1 1.993 17.937 11.958
1 1.993 15.944 13.951
1 0 17.937 13.951
1 3.986 15.944 11.958
1 5.979 17.937 11.958
1 5.979 15.944 13.951
1 3.986 17.937 13.951
1 7.972 15.944 11.958
1 9.965 17.937 11.958
1 9.965 15.944 13.951
1 7.972 17.937 13.951
1 11.958 15.944 11.958
1 13.951 17.937 11.958
1 13.951 15.944 13.951
1 11.958 17.937 13.951
1 15.944 15.944 11.958
1 17.937 17.937 11.958
1 17.937 15.944 13.951
1 15.944 17.937 13.951
1 19.93 15.944 11.958
1 21.923 17.937 11.958
1 21.923 15.944 13.951
1 19.93 17.937 13.951
1 23.916 15.944 11.958
1 23.916 17.937 13.951
1 0 19.93 11.958
1 1.993 21.923 11.958
1 1.993 19.93 13.951
1 0 21.923 13.951
1 3.986 19.93 11.958
1 5.979 21.923 11.958
1 5.979 19.93 13.951
1 3.986 21.923 13.951
1 7.972 19.93 11.958
1 9.965 21.923 11.958
1 9.965 19.93 13.951
1 7.972 21.923 13.951
1 11.958 19.93 11.958
1 13.951 21.923 11.958
1 13.951 19.93 13.951
1 11.958 21.923 13.951
1 15.944 19.93 11.958
1 17.937 21.923 11.958
1 17.937 19.93 13.951
1 15.944 21.923 13.951
1 19.93 19.93 11.958
1 21.923 21.923 11.958
1 21.923 19.93 13.951
1 19.93 21.923 13.951
1 23.916 19.93 11.958
1 23.916 21.923 13.951
1 0 23.916 11.958
1 1.993 23.916 13.951
1 3.986 23.916 11.958
1 5.979 23.916 13.951
1 7.972 23.916 11.958
1 9.965 23.916 13.951
1 11.958 23.916 11.958
1 13.951 23.916 13.951
1 15.944 23.916 11.958
1 17.937 23.916 13.951
1 19.93 23.916 11.958
1 21.923 23.916 13.951
1 23.916 23.916 11.958
1 0 0 15.944
1 1.993 1.993 15.944
1 1.993 0 17.937
1 0 1.993 17.937
1 3.986 0 15.944
1 5.979 1.993 15.944
1 5.979 0 17.937
1 3.986 1.993 17.937
1 7.972 0 15.944
1 9.965 1.993 15.944
1 9.965 0 17.937
1 7.972 1.993 17.937
1 11.958 0 15.944
1 13.951 1.993 15.944
1 13.951 0 17.937
1 11.958 1.993 17.937
1 15.944 0 15.944
1 17.937 1.993 15.944
1 17.937 0 17.937
1 15.944 1.993 17.937
1 19.93 0 15.944
1 21.923 1.993 15.944
1 21.923 0 17.937
1 19.93 1.993 17.937
1 23.916 0 15.944
1 23.916 1.993 17.937
1 0 3.986 15.944
1 1.993 5.979 15.944
1 1.993 3.986 17.937
1 0 5.979 17.937
1 3.986 3.986 15.944
1 5.979 5.979 15.944
1 5.979 3.986 17.937
1 3.986 5.979 17.937
1 7.972 3.986 15.944
1 9.965 5.979 15.944
1 9.965 3.986 17.937
1 7.972 5.979 17.937
1 11.958 3.986 15.944
1 13.951 5.979 15.944
1 13.951 3.986 17.937
1 11.958 5.979 17.937
1 15.944 3.986 15.944
1 17.937 5.979 15.944
1 17.937 3.986 17.937
1 15.944 5.979 17.937
1 19.93 3.986 15.944
1 21.923 5.979 15.944
1 21.923 3.986 17.937
1 19.93 5.979 17.937
1 23.916 3.986 15.944
1 23.916 5.979 17.937
1 0 7.972 15.944
1 1.993 9.965 15.944
1 1.993 7.972 17.937
1 0 9.965 17.937
1 3.986 7.972 15.944
1 5.979 9.965 15.944
1 5.979 7.972 17.937
1 3.986 9.965 17.937
1 7.972 7.972 15.944
1 9.965 9.965 15.944
1 9.965 7.972 17.937
1 7.972 9.965 17.937
1 11.958 7.972 15.944
1 13.951 9.965 15.944
1 13.951 7.972 17.937
1 11.958 9.965 17.937
1 15.944 7.972 15.944
1 17.937 9.965 15.944
1 17.937 7.972 17.937
1 15.944 9.965 17.937
1 19.93 7.972 15.944
1 21.923 9.965 15.944
1 21.923 7.972 17.937
1 19.93 9.965 17.937
1 23.916 7.972 15.944
1 23.916 9.965 17.937
1 0 11.958 15.944
1 1.993 13.951 15.944
1 1.993 11.958 17.937
1 0 13.951 17.937
1 3.986 11.958 15.944
1 5.979 13.951 15.944
1 5.979 11.958 17.937
1 3.986 13.951 17.937
1 7.972 11.958 15.944
1 9.965 13.951 15.944
1 9.965 11.958 17.937
1 7.972 13.951 17.937
1 11.958 11.958 15.944
1 13.951 13.951 15.944
1 13.951 11.958 17.937
1 11.958 13.951 17.937
1 15.944 11.958 15.944
1 17.937 13.951 15.944
1 17.937 11.958 17.937
1 15.944 13.951 17.937
1 19.93 11.958 15.944
1 21.923 13.951 15.944
1 21.923 11.958 17.937
1 19.93 13.951 17.937
1 23.916 11.958 15.944
1 23.916 13.951 17.937
1 0 15.944 15.944
1 1.993 17.937 15.944
1 1.993 15.944 17.937
1 0 17.937 17.937
1 3.986 15.944 15.944
1 5.979 17.937 15.944
1 5.979 15.944 17.937
1 3.986 17.937 17.937
1 7.972 15.944 15.944
1 9.965 17.937 15.944
1 9.965 15.944 17.937
1 7.972 17.937 17.937
1 11.958 15.944 15.944
1 13.951 17.937 15.944
1 13.951 15.944 17.937
1 11.958 17.937 17.937
1 15.944 15.944 15.944
1 17.937 17.937 15.944
1 17.937 15.944 17.937
1 15.944 17.937 17.937
1 19.93 15.944 15.944
1 21.923 17.937 15.944
1 21.923 15.944 17.937
1 19.93 17.937 17.937
1 23.916 15.944 15.944
1 23.916 17.937 17.937
1 0 19.93 15.944
1 1.993 21.923 15.944
1 1.993 19.93 17.937
1 0 21.923 17.937
1 3.986 19.93 15.944
1 5.979 21.923 15.944
1 5.979 19.93 17.937
1 3.986 21.923 17.937
1 7.972 19.93 15.944
1 9.965 21.923 15.944
1 9.965 19.93 17.937
1 7.972 21.923 17.937
1 11.958 19.93 15.944
1 13.951 21.923 15.944
1 13.951 19.93 17.937
1 11.958 21.923 17.937
1 15.944 19.93 15.944
1 17.937 21.923 15.944
1 17.937 19.93 17.937
1 15.944 21.923 17.937
1 19.93 19.93 15.944
1 21.923 21.923 15.944
1 21.923 19.93 17.937
1 19.93 21.923 17.937
1 23.916 19.93 15.944
1 23.916 21.923 17.937
1 0 23.916 15.944
1 1.993 23.916 17.937
1 3.986 23.916 15.944
1 5.979 23.916 17.937
1 7.972 23.916 15.944
1 9.965 23.916 17.937
1 11.958 23.916 15.944
1 13.951 23.916 17.937
1 15.944 23.916 15.944
1 17.937 23.916 17.937
1 19.93 23.916 15.944
1 21.923 23.916 17.937
1 23.916 23.916 15.944
1 0 0 19.93
1 1.993 1.993 19.93
1 1.993 0 21.923
1 0 1.993 21.923
1 3.986 0 19.93
1 5.979 1.993 19.93
1 5.979 0 21.923
1 3.986 1.993 21.923
1 7.972 0 19.93
1 9.965 1.993 19.93
1 9.965 0 21.923
1 7.972 1.993 21.923
1 11.958 0 19.93
1 13.951 1.993 19.93
1 13.951 0 21.923
1 11.958 1.993 21.923
1 15.944 0 19.93
1 17.937 1.993 19.93
1 17.937 0 21.923
1 15.944 1.993 21.923
1 19.93 0 19.93
1 21.923 1.993 19.93
1 21.923 0 21.923
1 19.93 1.993 21.923
1 23.916 0 19.93
1 23.916 1.993 21.923
1 0 3.986 19.93
1 1.993 5.979 19.93
1 1.993 3.986 21.923
1 0 5.979 21.923
1 3.986 3.986 19.93
1 5.979 5.979 19.93
1 5.979 3.986 21.923
1 3.986 5.979 21.923
1 7.972 3.986 19.93
1 9.965 5.979 19.93
1 9.965 3.986 21.923
1 7.972 5.979 21.923
1 11.958 3.986 19.93
1 13.951 5.979 19.93
1 13.951 3.986 21.923
1 11.958 5.979 21.923
1 15.944 3.986 19.93
1 17.937 5.979 19.93
1 17.937 3.986 21.923
1 15.944 5.979 21.923
1 19.93 3.986 19.93
1 21.923 5.979 19.93
1 21.923 3.986 21.923
1 19.93 5.979 21.923
1 23.916 3.986 19.93
1 23.916 5.979 21.923
1 0 7.972 19.93
1 1.993 9.965 19.93
1 1.993 7.972 21.923
1 0 9.965 21.923
1 3.986 7.972 19.93
1 5.979 9.965 19.93
1 5.979 7.972 21.923
1 3.986 9.965 21.923
1 7.972 7.972 19.93
1 9.965 9.965 19.93
1 9.965 7.972 21.923
1 7.972 9.965 21.923
1 11.958 7.972 19.93
1 13.951 9.965 19.93
1 13.951 7.972 21.923
1 11.958 9.965 21.923
1 15.944 7.972 19.93
1 17.937 9.965 19.93
1 17.937 7.972 21.923
1 15.944 9.965 21.923
1 19.93 7.972 19.93
1 21.923 9.965 19.93
1 21.923 7.972 21.923
1 19.93 9.965 21.923
1 23.916 7.972 19.93
1 23.916 9.965 21.923
1 0 11.958 19.93
1 1.993 13.951 19.93
1 1.993 11.958 21.923
1 0 13.951 21.923
1 3.986 11.958 19.93
1 5.979 13.951 19.93
1 5.979 11.958 21.923
1 3.986 13.951 21.923
1 7.972 11.958 19.93
1 9.965 13.951 19.93
1 9.965 11.958 21.923
1 7.972 13.951 21.923
1 11.958 11.958 19.93
1 13.951 13.951 19.93
1 13.951 11.958 21.923
1 11.958 13.951 21.923
1 15.944 11.958 19.93
1 17.937 13.951 19.93
1 17.937 11.958 21.923
1 15.944 13.951 21.923
1 19.93 11.958 19.93
1 21.923 13.951 19.93
1 21.923 11.958 21.923
1 19.93 13.951 21.923
1 23.916 11.958 19.93
1 23.916 13.951 21.923
1 0 15.944 19.93
1 1.993 17.937 19.93
1 1.993 15.944 21.923
1 0 17.937 21.923
1 3.986 15.944 19.93
1 5.979 17.937 19.93
1 5.979 15.944 21.923
1 3.986 17.937 21.923
1 7.972 15.944 19.93
1 9.965 17.937 19.93
1 9.965 15.944 21.923
1 7.972 17.937 21.923
1 11.958 15.944 19.93
1 13.951 17.937 19.93
1 13.951 15.944 21.923
1 11.958 17.937 21.923
1 15.944 15.944 19.93
1 17.937 17.937 19.93
1 17.937 15.944 21.923
1 15.944 17.937 21.923
1 19.93 15.944 19.93
1 21.923 17.937 19.93
1 21.923 15.944 21.923
1 19.93 17.937 21.923
1 23.916 15.944 19.93
1 23.916 17.937 21.923
1 0 19.93 19.93
1 1.993 21.923 19.93
1 1.993 19.93 21.923
1 0 21.923 21.923
1 3.986 19.93 19.93
1 5.979 21.923 19.93
1 5.979 19.93 21.923
1 3.986 21.923 21.923
1 7.972 19.93 19.93
1 9.965 21.923 19.93
1 9.965 19.93 21.923
1 7.972 21.923 21.923
1 11.958 19.93 19.93
1 13.951 21.923 19.93
1 13.951 19.93 21.923
1 11.958 21.923 21.923
1 15.944 19.93 19.93
1 17.937 21.923 19.93
1 17.937 19.93 21.923
1 15.944 21.923 21.923
1 19.93 19.93 19.93
1 21.923 21.923 19.93
1 21.923 19.93 21.923
1 19.93 21.923 21.923
1 23.916 19.93 19.93
1 23.916 21.923 21.923
1 0 23.916 19.93
1 1.993 23.916 21.923
1 3.986 23.916 19.93
1 5.979 23.916 21.923
1 7.972 23.916 19.93
1 9.965 23.916 21.923
1 11.958 23.916 19.93
1 13.951 23.916 21.923
1 15.944 23.916 19.93
1 17.937 23.916 21.923
1 19.93 23.916 19.93
1 21.923 23.916 21.923
1 23.916 23.916 19.93
1 0 0 23.916
1 1.993 1.993 23.916
1 3.986 0 23.916
1 5.979 1.993 23.916
1 7.972 0 23.916
1 9.965 1.993 23.916
1 11.958 0 23.916
1 13.951 1.993 23.916
1 15.944 0 23.916
1 17.937 1.993 23.916
1 19.93 0 23.916
1 21.923 1.993 23.916
1 23.916 0 23.916
1 0 3.986 23.916
1 1.993 5.979 23.916
1 3.986 3.986 23.916
1 5.979 5.979 23.916
1 7.972 3.986 23.916
1 9.965 5.979 23.916
1 11.958 3.986 23.916
1 13.951 5.979 23.916
1 15.944 3.986 23.916
1 17.937 5.979 23.916
1 19.93 3.986 23.916
1 21.923 5.979 23.916
1 23.916 3.986 23.916
1 0 7.972 23.916
1 1.993 9.965 23.916
1 3.986 7.972 23.916
1 5.979 9.965 23.916
1 7.972 7.972 23.916
1 9.965 9.965 23.916
1 11.958 7.972 23.916
1 13.951 9.965 23.916
1 15.944 7.972 23.916
1 17.937 9.965 23.916
1 19.93 7.972 23.916
1 21.923 9.965 23.916
1 23.916 7.972 23.916
1 0 11.958 23.916
1 1.993 13.951 23.916
1 3.986 11.958 23.916
1 5.979 13.951 23.916
1 7.972 11.958 23.916
1 9.965 13.951 23.916
1 11.958 11.958 23.916
1 13.951 13.951 23.916
1 15.944 11.958 23.916
1 17.937 13.951 23.916
1 19.93 11.958 23.916
1 21.923 13.951 23.916
1 23.916 11.958 23.916
1 0 15.944 23.916
1 1.993 17.937 23.916
1 3.986 15.944 23.916
1 5.979 17.937 23.916
1 7.972 15.944 23.916
1 9.965 17.937 23.916
1 11.958 15.944 23.916
1 13.951 17.937 23.916
1 15.944 15.944 23.916
1 17.937 17.937 23.916
1 19.93 15.944 23.916
1 21.923 17.937 23.916
1 23.916 15.944 23.916
1 0 19.93 23.916
1 1.993 21.923 23.916
1 3.986 19.93 23.916
1 5.979 21.923 23.916
1 7.972 19.93 23.916
1 9.965 21.923 23.916
1 11.958 19.93 23.916
1 13.951 21.923 23.916
1 15.944 19.93 23.916
1 17.937 21.923 23.916
1 19.93 19.93 23.916
1 21.923 21.923 23.916
1 23.916 19.93 23.916
1 0 23.916 23.916
1 3.986 23.916 23.916
1 7.972 23.916 23.916
1 11.958 23.916 23.916
1 15.944 23.916 23.916
1 19.93 23.916 23.916
1 23.916 23.916 23.916
1099
Atoms. Timestep: 1099
1 1.30399 -0.117779 0.0335866
1 2.77719 2.19549 0.215664
1 2.11728 -0.119003 2.78053
1 0.301154 2.06611 1.43658
1 4.05861 25.8287 0.807592
1 5.51183 1.9126 0.0798599
1 6.44724 0.0172479 2.09182
1 4.16054 1.82074 2.54393
1 7.89058 1.10064 25.5475
1 9.97518 2.9643 25.7163
1 10.0166 0.538777 0.984656
1 8.13581 2.22924 1.9028
1 12.1833 1.12517 25.3781
1 14.2479 2.9893 25.5032
1 14.0534 0.479073 0.976724
1 12.088 2.67095 1.39963
1 16.065 0.826538 25.2498
1 18.1132 2.72359 25.7568
1 17.9793 0.405122 1.11715
1 16.0144 2.51137 1.41644
1 20.1167 0.439588 25.4418
1 22.5351 2.22501 0.243689
1 21.8876 0.080165 1.69863
1 19.9892 2.18763 1.68975
1 24.6668 25.7593 1.24287
1 23.9874 1.92599 2.57963
1 0.794204 4.16687 25.6209
1 2.60607 6.42127 25.8384
1 2.24254 4.27501 1.78688
1 0.291765 6.26707 1.42372
1 4.48801 4.40729 -0.0745463
1 5.82173 6.77226 25.8303
1 6.03964 3.87292 2.13616
1 4.30841 6.15805 1.90042
1 7.48261 4.19793 -0.124022
1 9.68962 6.37174 26.0115
1 9.92078 4.4373 1.77017
1 7.69972 6.18942 1.74897
1 12.0264 4.84663 25.7656
1 14.0283 6.77943 25.9441
1 14.1048 4.62478 1.52857
1 11.9389 6.40664 1.81017
1 16.2556 4.9207 25.773
1 18.5812 6.66154 -0.0961914
1 18.0843 4.48122 1.66367
1 16.1334 6.53582 1.75553
1 20.5171 4.21966 0.000467339
1 22.6287 6.09522 0.452988
1 22.131 4.08977 2.33038
1 20.257 6.25379 2.04275
1 24.6454 4.11936 0.956824
1 24.1004 6.23304 2.84211
1 0.347661 8.24084 25.6897
1 1.97227 10.4592 0.0941092
1 2.36966 8.12461 1.73007
1 0.0455297 9.56518 2.02712
1 4.07863 8.90867 25.7298
1 6.18517 10.7242 25.8886
1 5.89704 8.35727 1.80822
1 4.18406 10.3947 1.84478
1 7.88189 8.51368 -0.0951291
1 9.73537 10.4649 0.0816897
1 9.82054 8.22798 1.91364
1 7.85047 10.3056 1.96834
1 11.7387 8.40209 -0.01055
1 13.6493 10.4019 0.080258
1 13.9736 8.41138 1.90331
1 11.7559 10.305 2.0287
1 16.1254 8.67472 0.0040847
1 18.5408 10.199 0.0989271
1 18.1979 8.34511 2.01199
1 16.0222 10.2781 2.15592
1 20.8538 8.33677 0.233151
1 21.7391 10.9045 0.173285
1 22.112 8.38676 2.63296
1 20.0616 10.4451 2.27467
1 24.1456 8.32926 0.915424
1 23.78 11.002 2.10666
1 25.9159 12.0107 0.566325
1 2.13941 14.3781 26.0177
1 2.1791 12.3405 1.88344
1 0.203082 14.4805 1.60975
1 4.14533 12.5331 -0.0629175
1 6.00629 14.6499 -0.0719929
1 6.20765 12.4561 1.84901
1 4.14544 14.3287 1.9478
1 8.16277 12.7492 26.0043
1 10.0657 14.825 -0.0575958
1 9.70003 12.3621 2.12164
1 8.02399 14.5735 1.94912
1 11.5743 12.4266 0.194721
1 13.6728 14.1979 0.249771
1 13.7737 12.2242 2.07469
1 11.6473 14.3821 2.14025
1 15.955 11.8246 0.048593
1 17.1068 14.1983 0.013855
1 17.8558 12.4056 2.09006
1 15.6147 14.2434 2.16571
1 19.555 12.8982 0.0282772
1 21.4827 14.8484 -0.0474166
1 21.674 12.8102 2.04483
1 19.6548 14.592 2.14591
1 23.5544 12.9632 25.9254
1 23.9999 13.9757 2.54445
1 0.252523 16.5416 25.6604
1 1.98252 18.6126 -0.0184285
1 2.19015 16.246 1.95232
1 25.9886 17.3869 2.13353
1 3.90592 16.6216 -0.0697219
1 5.71978 18.7906 0.128605
1 5.8282 16.5014 2.00769
1 3.72168 18.5069 2.10026
1 7.87422 16.7246 0.103261
1 9.88602 18.7343 0.17417
1 9.91323 16.6491 2.01716
1 7.70001 18.5848 2.10949
1 12.1624 16.7194 0.00398787
1 13.966 18.9261 0.0177943
1 13.6334 16.3474 2.21449
1 11.8864 18.6091 2.03075
1 15.3438 16.3951 0.172363
1 17.3068 18.2835 0.160257
1 17.4577 16.2071 2.02685
1 15.5406 18.3874 2.16318
1 19.0157 15.987 25.9801
1 21.1799 17.6426 25.8314
1 21.8719 16.1877 2.17319
1 19.5929 17.9067 1.88092
1 24.1312 15.4889 0.2919
1 23.5549 17.91 1.16669
1 25.5141 19.3884 0.138523
1 0.873041 21.7172 25.9298
1 1.13831 19.8531 2.19813
1 25.9762 22.5714 2.04389
1 3.63833 20.8723 0.144058
1 5.88902 22.791 0.350624
1 5.55717 20.5762 2.18201
1 2.97555 21.7063 2.54089
1 7.76208 20.7252 0.262568
1 9.92085 22.9107 0.439297
1 9.74537 20.587 2.18706
1 7.68686 22.5112 2.35666
1 11.8863 20.9032 0.310538
1 13.8458 23.0139 0.410171
1 13.8418 20.668 2.19062
1 11.7889 22.6754 2.45932
1 15.9187 20.8868 0.178771
1 17.9472 22.6593 0.471962
1 17.6382 20.2272 2.18
1 15.8236 22.5393 2.44572
1 19.33 20.0247 0.0661514
1 21.1887 21.9057 25.9348
1 21.6749 19.8137 1.48691
1 19.9084 21.9542 2.17262
1 23.017 19.6056 25.2157
1 23.9504 21.6963 0.537548
1 25.0586 23.9758 25.4021
1 2.00537 23.8406 1.34092
1 3.63386 23.5551 25.402
1 4.71073 23.8672 2.45226
1 7.89551 24.7464 0.410903
1 9.67555 24.4758 2.66675
1 11.973 24.8627 0.444439
1 13.941 24.5107 2.75519
1 16.0623 24.7157 0.709121
1 17.8648 24.3798 2.85382
1 19.9618 24.5006 1.089
1 22.7345 23.6121 1.91067
1 22.1933 24.2865 25.5512
1 25.7801 0.571319 3.92789
1 1.83223 2.40342 3.78798
1 1.96578 0.2357 5.49092
1 -0.0870787 2.56207 5.85057
1 4.6019 25.9054 4.36484
1 6.38535 1.91429 4.17241
1 6.79342 25.9976 6.26783
1 4.07936 2.14173 5.6154
1 8.53491 0.255663 3.92823
1 10.3674 2.24314 3.61089
1 10.6807 0.291417 5.77826
1 8.4985 2.01458 5.98473
1 11.9527 0.189428 2.86978
1 13.9722 2.27495 3.3096
1 13.7566 0.114985 5.05814
1 12.3365 2.34897 5.63095
1 15.9414 0.278029 3.11669
1 17.7957 2.28804 3.50784
1 17.5184 0.376744 5.55447
1 15.6496 2.29944 5.43082
1 19.5567 0.198475 3.54441
1 21.7362 1.80028 3.99477
1 21.1756 25.8299 5.85568
1 19.6934 2.0027 5.79601
1 23.2615 25.5086 3.98727
1 23.7627 1.2157 5.92947
1 0.0389141 4.39582 3.51508
1 2.20169 6.12067 3.78528
1 2.12261 4.14351 5.85438
1 0.103186 5.77911 6.18764
1 4.07887 4.18322 3.88536
1 6.10388 6.11916 3.9015
1 6.15907 4.11423 5.76421
1 4.09658 6.11133 5.85375
1 8.1728 4.09058 3.91233
1 9.95643 6.21325 3.81
1 10.2235 4.11454 5.75047
1 8.10893 6.10533 5.84135
1 12.1232 4.35134 3.64013
1 13.9999 6.39126 3.73763
1 14.0245 4.41628 5.70121
1 11.9889 6.22877 5.76535
1 15.8934 4.36524 3.57584
1 17.9868 6.20915 3.79133
1 17.7693 4.11135 5.65729
1 15.9984 6.2583 5.78052
1 19.8443 4.04587 3.80907
1 21.823 6.06207 4.24746
1 21.6311 3.89156 5.87643
1 19.7344 6.10984 5.86214
1 23.8842 3.84903 4.52644
1 23.9656 6.7102 5.64707
1 0.0919607 7.59755 3.96585
1 2.15348 10.1004 3.67027
1 2.06491 8.0554 5.82797
1 0.178792 10.0559 5.55056
1 4.10624 8.12517 3.87666
1 6.0516 10.1556 3.93642
1 6.10391 8.03917 5.88403
1 4.12147 9.98041 5.86456
1 7.92779 8.13696 3.82051
1 9.84714 10.1673 3.934
1 9.96836 8.13895 5.85295
1 8.00988 10.0567 5.9495
1 11.9244 8.2646 3.86178
1 13.9067 10.2504 3.9636
1 13.9672 8.20166 5.86066
1 11.9244 10.1627 5.9201
1 16.0214 8.26974 3.91339
1 17.9516 10.3891 4.02534
1 17.8975 8.25125 5.8893
1 15.9263 10.2576 5.91958
1 19.8922 8.2768 4.10316
1 21.9062 10.7156 4.19585
1 21.9085 8.43825 5.86365
1 19.8663 10.4172 5.96119
1 24.1728 9.173 4.11578
1 23.9061 10.4434 6.53387
1 0.00599791 11.9866 3.4627
1 2.11928 13.9529 3.90291
1 2.22756 11.8595 5.78368
1 -0.0640927 13.131 6.0738
1 4.22773 12.1663 3.85586
1 6.07959 14.2504 3.95917
1 6.03572 12.0095 6.01978
1 4.10319 13.9216 5.95616
1 7.89126 12.2151 4.06759
1 9.75393 14.3527 4.08999
1 9.90157 12.1362 5.95841
1 7.88536 14.1611 6.0613
1 11.7907 12.2342 4.00207
1 13.6848 14.2791 4.05532
1 13.8574 12.2442 5.94456
1 11.7825 14.2365 6.00191
1 15.8399 12.3281 4.04248
1 17.7838 14.4272 4.1121
1 17.8536 12.3881 5.99452
1 15.7895 14.3098 6.00934
1 19.8609 12.5717 4.12327
1 21.9429 14.468 4.28327
1 21.8121 12.552 6.31997
1 19.8673 14.4928 6.1599
1 23.8802 12.4305 4.68688
1 24.0035 14.8792 6.1104
1 26.0331 15.2109 4.17278
1 1.78468 17.5608 4.25012
1 1.86816 15.4113 6.13844
1 25.9511 17.0268 6.25325
1 3.97919 16.0512 4.08696
1 5.59221 18.3198 4.09318
1 5.85839 16.0771 6.0977
1 3.6565 17.783 6.24854
1 7.78714 16.414 4.01538
1 9.71248 18.4362 4.06401
1 9.69633 16.2813 6.06191
1 7.58526 18.1982 6.06904