800
Atoms. Timestep: 0
1 3.09562e-16 5.36177e-16 0
1 1.261 0.728039 0
1 2.522 9.57751e-16 0
1 3.783 0.728039 0
1 5.044 9.98681e-16 0
1 6.305 0.728039 0
1 7.566 1.17059e-15 0
1 8.827 0.728039 0
1 10.088 1.08873e-15 0
1 11.349 0.728039 0
1 12.61 1.66174e-15 0
1 13.871 0.728039 0
1 15.132 9.0045e-16 0
1 16.393 0.728039 0
1 17.654 1.36705e-15 0
1 18.915 0.728039 0
1 20.176 7.77661e-16 0
1 21.437 0.728039 0
1 22.698 1.55532e-15 0
1 23.959 0.728039 0
1 25.22 1.03142e-15 0
1 26.481 0.728039 0
1 27.742 9.65937e-16 0
1 29.003 0.728039 0
1 30.264 9.0045e-16 0
1 31.525 0.728039 0
1 32.786 1.03142e-15 0
1 34.047 0.728039 0
1 35.308 7.28546e-16 0
1 36.569 0.728039 0
1 37.83 1.14603e-15 0
1 39.091 0.728039 0
1 40.352 7.12174e-16 0
1 41.613 0.728039 0
1 42.874 2.2102e-15 0
1 44.135 0.728039 0
1 45.396 3.43808e-16 0
1 46.657 0.728039 0
1 47.918 1.22789e-15 0
1 49.179 0.728039 0
1 1.261 2.18412 0
1 2.522 2.91215 0
1 3.783 2.18412 0
1 5.044 2.91215 0
1 6.305 2.18412 0
1 7.566 2.91215 0
1 8.827 2.18412 0
1 10.088 2.91215 0
1 11.349 2.18412 0
1 12.61 2.91215 0
1 13.871 2.18412 0
1 15.132 2.91215 0
1 16.393 2.18412 0
1 17.654 2.91215 0
1 18.915 2.18412 0
1 20.176 2.91215 0
1 21.437 2.18412 0
1 22.698 2.91215 0
1 23.959 2.18412 0
1 25.22 2.91215 0
1 26.481 2.18412 0
1 27.742 2.91215 0
1 29.003 2.18412 0
1 30.264 2.91215 0
1 31.525 2.18412 0
1 32.786 2.91215 0
1 34.047 2.18412 0
1 35.308 2.91215 0
1 36.569 2.18412 0
1 37.83 2.91215 0
1 39.091 2.18412 0
1 40.352 2.91215 0
1 41.613 2.18412 0
1 42.874 2.91215 0
1 44.135 2.18412 0
1 45.396 2.91215 0
1 46.657 2.18412 0
1 47.918 2.91215 0
1 49.179 2.18412 0
1 50.44 2.91215 0
1 2.522 4.36823 0
1 3.783 5.09627 0
1 5.044 4.36823 0
1 6.305 5.09627 0
1 7.566 4.36823 0
1 8.827 5.09627 0
1 10.088 4.36823 0
1 11.349 5.09627 0
1 12.61 4.36823 0
1 13.871 5.09627 0
1 15.132 4.36823 0
1 16.393 5.09627 0
1 17.654 4.36823 0
1 18.915 5.09627 0
1 20.176 4.36823 0
1 21.437 5.09627 0
1 22.698 4.36823 0
1 23.959 5.09627 0
1 25.22 4.36823 0
1 26.481 5.09627 0
1 27.742 4.36823 0
1 29.003 5.09627 0
1 30.264 4.36823 0
1 31.525 5.09627 0
1 32.786 4.36823 0
1 34.047 5.09627 0
1 35.308 4.36823 0
1 36.569 5.09627 0
1 37.83 4.36823 0
1 39.091 5.09627 0
1 40.352 4.36823 0
1 41.613 5.09627 0
1 42.874 4.36823 0
1 44.135 5.09627 0
1 45.396 4.36823 0
1 46.657 5.09627 0
1 47.918 4.36823 0
1 49.179 5.09627 0
1 50.44 4.36823 0
1 51.701 5.09627 0
1 3.783 6.55235 0
1 5.044 7.28039 0
1 6.305 6.55235 0
1 7.566 7.28039 0
1 8.827 6.55235 0
1 10.088 7.28039 0
1 11.349 6.55235 0
1 12.61 7.28039 0
1 13.871 6.55235 0
1 15.132 7.28039 0
1 16.393 6.55235 0
1 17.654 7.28039 0
1 18.915 6.55235 0
1 20.176 7.28039 0
1 21.437 6.55235 0
1 22.698 7.28039 0
1 23.959 6.55235 0
1 25.22 7.28039 0
1 26.481 6.55235 0
1 27.742 7.28039 0
1 29.003 6.55235 0
1 30.264 7.28039 0
1 31.525 6.55235 0
1 32.786 7.28039 0
1 34.047 6.55235 0
1 35.308 7.28039 0
1 36.569 6.55235 0
1 37.83 7.28039 0
1 39.091 6.55235 0
1 40.352 7.28039 0
1 41.613 6.55235 0
1 42.874 7.28039 0
1 44.135 6.55235 0
1 45.396 7.28039 0
1 46.657 6.55235 0
1 47.918 7.28039 0
1 49.179 6.55235 0
1 50.44 7.28039 0
1 51.701 6.55235 0
1 52.962 7.28039 0
1 5.044 8.73646 0
1 6.305 9.4645 0
1 7.566 8.73646 0
1 8.827 9.4645 0
1 10.088 8.73646 0
1 11.349 9.4645 0
1 12.61 8.73646 0
1 13.871 9.4645 0
1 15.132 8.73646 0
1 16.393 9.4645 0
1 17.654 8.73646 0
1 18.915 9.4645 0
1 20.176 8.73646 0
1 21.437 9.4645 0
1 22.698 8.73646 0
1 23.959 9.4645 0
1 25.22 8.73646 0
1 26.481 9.4645 0
1 27.742 8.73646 0
1 29.003 9.4645 0
1 30.264 8.73646 0
1 31.525 9.4645 0
1 32.786 8.73646 0
1 34.047 9.4645 0
1 35.308 8.73646 0
1 36.569 9.4645 0
1 37.83 8.73646 0
1 39.091 9.4645 0
1 40.352 8.73646 0
1 41.613 9.4645 0
1 42.874 8.73646 0
1 44.135 9.4645 0
1 45.396 8.73646 0
1 46.657 9.4645 0
1 47.918 8.73646 0
1 49.179 9.4645 0
1 50.44 8.73646 0
1 51.701 9.4645 0
1 52.962 8.73646 0
1 54.223 9.4645 0
1 6.305 10.9206 0
1 7.566 11.6486 0
1 8.827 10.9206 0
1 10.088 11.6486 0
1 11.349 10.9206 0
1 12.61 11.6486 0
1 13.871 10.9206 0
1 15.132 11.6486 0
1 16.393 10.9206 0
1 17.654 11.6486 0
1 18.915 10.9206 0
1 20.176 11.6486 0
1 21.437 10.9206 0
1 22.698 11.6486 0
1 23.959 10.9206 0
1 25.22 11.6486 0
1 26.481 10.9206 0
1 27.742 11.6486 0
1 29.003 10.9206 0
1 30.264 11.6486 0
1 31.525 10.9206 0
1 32.786 11.6486 0
1 34.047 10.9206 0
1 35.308 11.6486 0
1 36.569 10.9206 0
1 37.83 11.6486 0
1 39.091 10.9206 0
1 40.352 11.6486 0
1 41.613 10.9206 0
1 42.874 11.6486 0
1 44.135 10.9206 0
1 45.396 11.6486 0
1 46.657 10.9206 0
1 47.918 11.6486 0
1 49.179 10.9206 0
1 50.44 11.6486 0
1 51.701 10.9206 0
1 52.962 11.6486 0
1 54.223 10.9206 0
1 55.484 11.6486 0
1 7.566 13.1047 0
1 8.827 13.8327 0
1 10.088 13.1047 0
1 11.349 13.8327 0
1 12.61 13.1047 0
1 13.871 13.8327 0
1 15.132 13.1047 0
1 16.393 13.8327 0
1 17.654 13.1047 0
1 18.915 13.8327 0
1 20.176 13.1047 0
1 21.437 13.8327 0
1 22.698 13.1047 0
1 23.959 13.8327 0
1 25.22 13.1047 0
1 26.481 13.8327 0
1 27.742 13.1047 0
1 29.003 13.8327 0
1 30.264 13.1047 0
1 31.525 13.8327 0
1 32.786 13.1047 0
1 34.047 13.8327 0
1 35.308 13.1047 0
1 36.569 13.8327 0
1 37.83 13.1047 0
1 39.091 13.8327 0
1 40.352 13.1047 0
1 41.613 13.8327 0
1 42.874 13.1047 0
1 44.135 13.8327 0
1 45.396 13.1047 0
1 46.657 13.8327 0
1 47.918 13.1047 0
1 49.179 13.8327 0
1 50.44 13.1047 0
1 51.701 13.8327 0
1 52.962 13.1047 0
1 54.223 13.8327 0
1 55.484 13.1047 0
1 56.745 13.8327 0
1 8.827 15.2888 0
1 10.088 16.0169 0
1 11.349 15.2888 0
1 12.61 16.0169 0
1 13.871 15.2888 0
1 15.132 16.0169 0
1 16.393 15.2888 0
1 17.654 16.0169 0
1 18.915 15.2888 0
1 20.176 16.0169 0
1 21.437 15.2888 0
1 22.698 16.0169 0
1 23.959 15.2888 0
1 25.22 16.0169 0
1 26.481 15.2888 0
1 27.742 16.0169 0
1 29.003 15.2888 0
1 30.264 16.0169 0
1 31.525 15.2888 0
1 32.786 16.0169 0
1 34.047 15.2888 0
1 35.308 16.0169 0
1 36.569 15.2888 0
1 37.83 16.0169 0
1 39.091 15.2888 0
1 40.352 16.0169 0
1 41.613 15.2888 0
1 42.874 16.0169 0
1 44.135 15.2888 0
1 45.396 16.0169 0
1 46.657 15.2888 0
1 47.918 16.0169 0
1 49.179 15.2888 0
1 50.44 16.0169 0
1 51.701 15.2888 0
1 52.962 16.0169 0
1 54.223 15.2888 0
1 55.484 16.0169 0
1 56.745 15.2888 0
1 58.006 16.0169 0
1 10.088 17.4729 0
1 11.349 18.201 0
1 12.61 17.4729 0
1 13.871 18.201 0
1 15.132 17.4729 0
1 16.393 18.201 0
1 17.654 17.4729 0
1 18.915 18.201 0
1 20.176 17.4729 0
1 21.437 18.201 0
1 22.698 17.4729 0
1 23.959 18.201 0
1 25.22 17.4729 0
1 26.481 18.201 0
1 27.742 17.4729 0
1 29.003 18.201 0
1 30.264 17.4729 0
1 31.525 18.201 0
1 32.786 17.4729 0
1 34.047 18.201 0
1 35.308 17.4729 0
1 36.569 18.201 0
1 37.83 17.4729 0
1 39.091 18.201 0
1 40.352 17.4729 0
1 41.613 18.201 0
1 42.874 17.4729 0
1 44.135 18.201 0
1 45.396 17.4729 0
1 46.657 18.201 0
1 47.918 17.4729 0
1 49.179 18.201 0
1 50.44 17.4729 0
1 51.701 18.201 0
1 52.962 17.4729 0
1 54.223 18.201 0
1 55.484 17.4729 0
1 56.745 18.201 0
1 58.006 17.4729 0
1 59.267 18.201 0
1 11.349 19.657 0
1 12.61 20.3851 0
1 13.871 19.657 0
1 15.132 20.3851 0
1 16.393 19.657 0
1 17.654 20.3851 0
1 18.915 19.657 0
1 20.176 20.3851 0
1 21.437 19.657 0
1 22.698 20.3851 0
1 23.959 19.657 0
1 25.22 20.3851 0
1 26.481 19.657 0
1 27.742 20.3851 0
1 29.003 19.657 0
1 30.264 20.3851 0
1 31.525 19.657 0
1 32.786 20.3851 0
1 34.047 19.657 0
1 35.308 20.3851 0
1 36.569 19.657 0
1 37.83 20.3851 0
1 39.091 19.657 0
1 40.352 20.3851 0
1 41.613 19.657 0
1 42.874 20.3851 0
1 44.135 19.657 0
1 45.396 20.3851 0
1 46.657 19.657 0
1 47.918 20.3851 0
1 49.179 19.657 0
1 50.44 20.3851 0
1 51.701 19.657 0
1 52.962 20.3851 0
1 54.223 19.657 0
1 55.484 20.3851 0
1 56.745 19.657 0
1 58.006 20.3851 0
1 59.267 19.657 0
1 60.528 20.3851 0
1 12.61 21.8412 0
1 13.871 22.5692 0
1 15.132 21.8412 0
1 16.393 22.5692 0
1 17.654 21.8412 0
1 18.915 22.5692 0
1 20.176 21.8412 0
1 21.437 22.5692 0
1 22.698 21.8412 0
1 23.959 22.5692 0
1 25.22 21.8412 0
1 26.481 22.5692 0
1 27.742 21.8412 0
1 29.003 22.5692 0
1 30.264 21.8412 0
1 31.525 22.5692 0
1 32.786 21.8412 0
1 34.047 22.5692 0
1 35.308 21.8412 0
1 36.569 22.5692 0
1 37.83 21.8412 0
1 39.091 22.5692 0
1 40.352 21.8412 0
1 41.613 22.5692 0
1 42.874 21.8412 0
1 44.135 22.5692 0
1 45.396 21.8412 0
1 46.657 22.5692 0
1 47.918 21.8412 0
1 49.179 22.5692 0
1 50.44 21.8412 0
1 51.701 22.5692 0
1 52.962 21.8412 0
1 54.223 22.5692 0
1 55.484 21.8412 0
1 56.745 22.5692 0
1 58.006 21.8412 0
1 59.267 22.5692 0
1 60.528 21.8412 0
1 61.789 22.5692 0
1 13.871 24.0253 0
1 15.132 24.7533 0
1 16.393 24.0253 0
1 17.654 24.7533 0
1 18.915 24.0253 0
1 20.176 24.7533 0
1 21.437 24.0253 0
1 22.698 24.7533 0
1 23.959 24.0253 0
1 25.22 24.7533 0
1 26.481 24.0253 0
1 27.742 24.7533 0
1 29.003 24.0253 0
1 30.264 24.7533 0
1 31.525 24.0253 0
1 32.786 24.7533 0
1 34.047 24.0253 0
1 35.308 24.7533 0
1 36.569 24.0253 0
1 37.83 24.7533 0
1 39.091 24.0253 0
1 40.352 24.7533 0
1 41.613 24.0253 0
1 42.874 24.7533 0
1 44.135 24.0253 0
1 45.396 24.7533 0
1 46.657 24.0253 0
1 47.918 24.7533 0
1 49.179 24.0253 0
1 50.44 24.7533 0
1 51.701 24.0253 0
1 52.962 24.7533 0
1 54.223 24.0253 0
1 55.484 24.7533 0
1 56.745 24.0253 0
1 58.006 24.7533 0
1 59.267 24.0253 0
1 60.528 24.7533 0
1 61.789 24.0253 0
1 63.05 24.7533 0
1 15.132 26.2094 0
1 16.393 26.9374 0
1 17.654 26.2094 0
1 18.915 26.9374 0
1 20.176 26.2094 0
1 21.437 26.9374 0
1 22.698 26.2094 0
1 23.959 26.9374 0
1 25.22 26.2094 0
1 26.481 26.9374 0
1 27.742 26.2094 0
1 29.003 26.9374 0
1 30.264 26.2094 0
1 31.525 26.9374 0
1 32.786 26.2094 0
1 34.047 26.9374 0
1 35.308 26.2094 0
1 36.569 26.9374 0
1 37.83 26.2094 0
1 39.091 26.9374 0
1 40.352 26.2094 0
1 41.613 26.9374 0
1 42.874 26.2094 0
1 44.135 26.9374 0
1 45.396 26.2094 0
1 46.657 26.9374 0
1 47.918 26.2094 0
1 49.179 26.9374 0
1 50.44 26.2094 0
1 51.701 26.9374 0
1 52.962 26.2094 0
1 54.223 26.9374 0
1 55.484 26.2094 0
1 56.745 26.9374 0
1 58.006 26.2094 0
1 59.267 26.9374 0
1 60.528 26.2094 0
1 61.789 26.9374 0
1 63.05 26.2094 0
1 64.311 26.9374 0
1 16.393 28.3935 0
1 17.654 29.1215 0
1 18.915 28.3935 0
1 20.176 29.1215 0
1 21.437 28.3935 0
1 22.698 29.1215 0
1 23.959 28.3935 0
1 25.22 29.1215 0
1 26.481 28.3935 0
1 27.742 29.1215 0
1 29.003 28.3935 0
1 30.264 29.1215 0
1 31.525 28.3935 0
1 32.786 29.1215 0
1 34.047 28.3935 0
1 35.308 29.1215 0
1 36.569 28.3935 0
1 37.83 29.1215 0
1 39.091 28.3935 0
1 40.352 29.1215 0
1 41.613 28.3935 0
1 42.874 29.1215 0
1 44.135 28.3935 0
1 45.396 29.1215 0
1 46.657 28.3935 0
1 47.918 29.1215 0
1 49.179 28.3935 0
1 50.44 29.1215 0
1 51.701 28.3935 0
1 52.962 29.1215 0
1 54.223 28.3935 0
1 55.484 29.1215 0
1 56.745 28.3935 0
1 58.006 29.1215 0
1 59.267 28.3935 0
1 60.528 29.1215 0
1 61.789 28.3935 0
1 63.05 29.1215 0
1 64.311 28.3935 0
1 65.572 29.1215 0
1 17.654 30.5776 0
1 18.915 31.3057 0
1 20.176 30.5776 0
1 21.437 31.3057 0
1 22.698 30.5776 0
1 23.959 31.3057 0
1 25.22 30.5776 0
1 26.481 31.3057 0
1 27.742 30.5776 0
1 29.003 31.3057 0
1 30.264 30.5776 0
1 31.525 31.3057 0
1 32.786 30.5776 0
1 34.047 31.3057 0
1 35.308 30.5776 0
1 36.569 31.3057 0
1 37.83 30.5776 0
1 39.091 31.3057 0
1 40.352 30.5776 0
1 41.613 31.3057 0
1 42.874 30.5776 0
1 44.135 31.3057 0
1 45.396 30.5776 0
1 46.657 31.3057 0
1 47.918 30.5776 0
1 49.179 31.3057 0
1 50.44 30.5776 0
1 51.701 31.3057 0
1 52.962 30.5776 0
1 54.223 31.3057 0
1 55.484 30.5776 0
1 56.745 31.3057 0
1 58.006 30.5776 0
1 59.267 31.3057 0
1 60.528 30.5776 0
1 61.789 31.3057 0
1 63.05 30.5776 0
1 64.311 31.3057 0
1 65.572 30.5776 0
1 66.833 31.3057 0
1 18.915 32.7617 0
1 20.176 33.4898 0
1 21.437 32.7617 0
1 22.698 33.4898 0
1 23.959 32.7617 0
1 25.22 33.4898 0
1 26.481 32.7617 0
1 27.742 33.4898 0
1 29.003 32.7617 0
1 30.264 33.4898 0
1 31.525 32.7617 0
1 32.786 33.4898 0
1 34.047 32.7617 0
1 35.308 33.4898 0
1 36.569 32.7617 0
1 37.83 33.4898 0
1 39.091 32.7617 0
1 40.352 33.4898 0
1 41.613 32.7617 0
1 42.874 33.4898 0
1 44.135 32.7617 0
1 45.396 33.4898 0
1 46.657 32.7617 0
1 47.918 33.4898 0
1 49.179 32.7617 0
1 50.44 33.4898 0
1 51.701 32.7617 0
1 52.962 33.4898 0
1 54.223 32.7617 0
1 55.484 33.4898 0
1 56.745 32.7617 0
1 58.006 33.4898 0
1 59.267 32.7617 0
1 60.528 33.4898 0
1 61.789 32.7617 0
1 63.05 33.4898 0
1 64.311 32.7617 0
1 65.572 33.4898 0
1 66.833 32.7617 0
1 68.094 33.4898 0
1 20.176 34.9459 0
1 21.437 35.6739 0
1 22.698 34.9459 0
1 23.959 35.6739 0
1 25.22 34.9459 0
1 26.481 35.6739 0
1 27.742 34.9459 0
1 29.003 35.6739 0
1 30.264 34.9459 0
1 31.525 35.6739 0
1 32.786 34.9459 0
1 34.047 35.6739 0
1 35.308 34.9459 0
1 36.569 35.6739 0
1 37.83 34.9459 0
1 39.091 35.6739 0
1 40.352 34.9459 0
1 41.613 35.6739 0
1 42.874 34.9459 0
1 44.135 35.6739 0
1 45.396 34.9459 0
1 46.657 35.6739 0
1 47.918 34.9459 0
1 49.179 35.6739 0
1 50.44 34.9459 0
1 51.701 35.6739 0
1 52.962 34.9459 0
1 54.223 35.6739 0
1 55.484 34.9459 0
1 56.745 35.6739 0
1 58.006 34.9459 0
1 59.267 35.6739 0
1 60.528 34.9459 0
1 61.789 35.6739 0
1 63.05 34.9459 0
1 64.311 35.6739 0
1 65.572 34.9459 0
1 66.833 35.6739 0
1 68.094 34.9459 0
1 69.355 35.6739 0
1 21.437 37.13 0
1 22.698 37.858 0
1 23.959 37.13 0
1 25.22 37.858 0
1 26.481 37.13 0
1 27.742 37.858 0
1 29.003 37.13 0
1 30.264 37.858 0
1 31.525 37.13 0
1 32.786 37.858 0
1 34.047 37.13 0
1 35.308 37.858 0
1 36.569 37.13 0
1 37.83 37.858 0
1 39.091 37.13 0
1 40.352 37.858 0
1 41.613 37.13 0
1 42.874 37.858 0
1 44.135 37.13 0
1 45.396 37.858 0
1 46.657 37.13 0
1 47.918 37.858 0
1 49.179 37.13 0
1 50.44 37.858 0
1 51.701 37.13 0
1 52.962 37.858 0
1 54.223 37.13 0
1 55.484 37.858 0
1 56.745 37.13 0
1 58.006 37.858 0
1 59.267 37.13 0
1 60.528 37.858 0
1 61.789 37.13 0
1 63.05 37.858 0
1 64.311 37.13 0
1 65.572 37.858 0
1 66.833 37.13 0
1 68.094 37.858 0
1 69.355 37.13 0
1 70.616 37.858 0
1 22.698 39.3141 0
1 23.959 40.0421 0
1 25.22 39.3141 0
1 26.481 40.0421 0
1 27.742 39.3141 0
1 29.003 40.0421 0
1 30.264 39.3141 0
1 31.525 40.0421 0
1 32.786 39.3141 0
1 34.047 40.0421 0
1 35.308 39.3141 0
1 36.569 40.0421 0
1 37.83 39.3141 0
1 39.091 40.0421 0
1 40.352 39.3141 0
1 41.613 40.0421 0
1 42.874 39.3141 0
1 44.135 40.0421 0
1 45.396 39.3141 0
1 46.657 40.0421 0
1 47.918 39.3141 0
1 49.179 40.0421 0
1 50.44 39.3141 0
1 51.701 40.0421 0
1 52.962 39.3141 0
1 54.223 40.0421 0
1 55.484 39.3141 0
1 56.745 40.0421 0
1 58.006 39.3141 0
1 59.267 40.0421 0
1 60.528 39.3141 0
1 61.789 40.0421 0
1 63.05 39.3141 0
1 64.311 40.0421 0
1 65.572 39.3141 0
1 66.833 40.0421 0
1 68.094 39.3141 0
1 69.355 40.0421 0
1 70.616 39.3141 0
1 71.877 40.0421 0
1 23.959 41.4982 0
1 25.22 42.2262 0
1 26.481 41.4982 0
1 27.742 42.2262 0
1 29.003 41.4982 0
1 30.264 42.2262 0
1 31.525 41.4982 0
1 32.786 42.2262 0
1 34.047 41.4982 0
1 35.308 42.2262 0
1 36.569 41.4982 0
1 37.83 42.2262 0
1 39.091 41.4982 0
1 40.352 42.2262 0
1 41.613 41.4982 0
1 42.874 42.2262 0
1 44.135 41.4982 0
1 45.396 42.2262 0
1 46.657 41.4982 0
1 47.918 42.2262 0
1 49.179 41.4982 0
1 50.44 42.2262 0
1 51.701 41.4982 0
1 52.962 42.2262 0
1 54.223 41.4982 0
1 55.484 42.2262 0
1 56.745 41.4982 0
1 58.006 42.2262 0
1 59.267 41.4982 0
1 60.528 42.2262 0
1 61.789 41.4982 0
1 63.05 42.2262 0
1 64.311 41.4982 0
1 65.572 42.2262 0
1 66.833 41.4982 0
1 68.094 42.2262 0
1 69.355 41.4982 0
1 70.616 42.2262 0
1 71.877 41.4982 0
1 73.138 42.2262 0
800
Atoms. Timestep: 50000
1 0.00608758 0.00421206 0.0181983
1 1.27894 0.739737 0.0385546
1 2.55303 -0.0096782 -0.012208
1 3.79498 0.718183 -0.00335121
1 5.03983 -0.011849 -0.0484523
1 6.30252 0.727915 0.0325416
1 7.57968 0.0051784 -0.00805376
1 8.82927 0.729278 -0.0309271
1 10.0759 0.0280205 -0.0347742
1 11.3188 0.745993 -0.0159606
1 12.5909 0.0264233 0.0519729
1 13.8805 0.727241 -0.010165
1 15.1158 0.00568751 -0.00407165
1 16.4002 0.750394 -0.00670298
1 17.655 0.0357588 0.0579619
1 18.9145 0.742334 -0.00861986
1 20.1921 -0.0124489 -0.0632568
1 21.4735 0.728727 -0.000646272
1 22.6944 -0.0158459 -0.00202834
1 23.9756 0.723776 -0.0161383
1 25.2179 -0.00462062 -0.0500186
1 26.4822 0.714209 0.0225309
1 27.7771 0.0199546 0.028418
1 29.0063 0.722159 -0.00276917
1 30.2464 -0.00717233 0.0092178
1 31.5274 0.733246 1.76844e-05
1 32.7993 0.000291133 -0.0280552
1 34.0513 0.74478 -0.0149792
1 35.3081 0.0218024 0.00437758
1 36.5724 0.740053 0.0183516
1 37.8213 0.0271514 0.0123933
1 39.0709 0.71952 0.00628487
1 40.3404 0.016229 -0.0231337
1 41.6102 0.715309 -0.0291723
1 42.8647 -0.00808435 0.0111751
1 44.144 0.73435 -0.0145282
1 45.3966 0.0172103 -0.0176195
1 46.6385 0.738401 0.0144063
1 47.9274 -0.00270637 -0.0268362
1 49.2033 0.718455 0.0178507
1 1.27586 2.19929 -0.00239967
1 2.52208 2.90568 0.0169248
1 3.80481 2.15297 -0.0513542
1 5.03156 2.91072 -0.00186636
1 6.31388 2.18633 -0.00694902
1 7.57484 2.91684 -0.0161533
1 8.82246 2.17247 0.0106624
1 10.0919 2.93515 0.00620455
1 11.3175 2.19199 -0.0404463
1 12.6088 2.9503 -0.00711367
1 13.8897 2.20391 -0.0291908
1 15.1328 2.92705 -0.0603403
1 16.3788 2.19054 0.0207804
1 17.657 2.89828 0.0156485
1 18.9064 2.16931 0.0316302
1 20.1672 2.90017 -0.0108828
1 21.452 2.19926 0.00796614
1 22.6879 2.93302 -0.0169001
1 23.9532 2.17201 0.00989595
1 25.1909 2.88907 0.00936333
1 26.4624 2.17585 -0.0446303
1 27.7069 2.90762 0.0107617
1 28.9849 2.2044 0.0194973
1 30.2819 2.92685 -0.0107697
1 31.5183 2.19933 0.00251411
1 32.7618 2.91218 -0.00173066
1 34.0347 2.19348 -0.0106541
1 35.2734 2.90755 -0.0141608
1 36.5499 2.17514 -0.00205568
1 37.8118 2.89823 0.0260948
1 39.0831 2.17163 0.0404691
1 40.3572 2.87557 -0.0111992
1 41.6119 2.16778 0.00748226
1 42.8725 2.89582 0.0167337
1 44.12 2.17636 0.00474855
1 45.4174 2.94022 -0.022209
1 46.6479 2.17771 0.0204986
1 47.9183 2.90811 0.0216086
1 49.1806 2.14174 -0.000713047
1 50.4653 2.91031 0.0319381
1 2.54897 4.36241 0.0142482
1 3.79977 5.07188 -0.0355256
1 5.05946 4.33783 0.00818624
1 6.30357 5.08086 0.00714834
1 7.58477 4.35658 -0.00990027
1 8.85653 5.11246 -0.00130863
1 10.1132 4.34715 0.0506181
1 11.3667 5.09192 0.0327792
1 12.6163 4.35491 -0.00637566
1 13.8692 5.09157 -0.021546
1 15.1236 4.38864 0.00629225
1 16.3809 5.1471 0.0240506
1 17.6614 4.3707 0.00272577
1 18.9159 5.08648 -0.00571601
1 20.1764 4.38676 0.0422408
1 21.4369 5.08015 0.0130705
1 22.7 4.37748 0.0198031
1 23.9371 5.09697 0.0154213
1 25.1894 4.38633 -0.0120256
1 26.4533 5.11644 0.00622092
1 27.7053 4.35555 0.0045454
1 28.9982 5.1129 -0.00348169
1 30.2662 4.39564 -0.00678053
1 31.5153 5.09634 -0.0525287
1 32.7584 4.37757 0.0185726
1 34.0499 5.10211 0.0281681
1 35.2875 4.3636 0.0220787
1 36.5754 5.07058 -0.021374
1 37.8098 4.36366 0.00358149
1 39.0551 5.0943 -0.0403036
1 40.3576 4.36076 -0.023628
1 41.615 5.08388 0.0343948
1 42.8856 4.36783 0.0141596
1 44.1275 5.08693 -0.00433052
1 45.4035 4.38255 -0.0127149
1 46.6571 5.12292 -0.0128005
1 47.9075 4.38734 -0.0717648
1 49.1665 5.09239 0.00855097
1 50.4357 4.36544 0.0237953
1 51.7174 5.11338 0.0553587
1 3.7818 6.48822 0.00501824
1 5.02665 7.24438 0.0193826
1 6.32103 6.53878 -0.01285
1 7.56229 7.26209 -0.0234416
1 8.85497 6.55831 -0.00799286
1 10.1024 7.28219 0.042135
1 11.3707 6.55117 -0.000771219
1 12.5962 7.26877 -0.0240268
1 13.8609 6.55139 -0.01706
1 15.1425 7.30708 -0.00192272
1 16.383 6.5987 0.00259849
1 17.6661 7.29864 -0.00684253
1 18.9166 6.5808 -0.0436084
1 20.167 7.27934 0.0355047
1 21.4398 6.54484 0.0100664
1 22.7073 7.29271 -0.00827663
1 23.9546 6.56164 0.00730172
1 25.2074 7.29973 0.0196071
1 26.4928 6.57209 -0.00185745
1 27.729 7.29885 -0.069842
1 29.0011 6.54253 0.00726673
1 30.2632 7.29271 -0.0126515
1 31.532 6.58476 0.0133737
1 32.8126 7.29109 0.0157754
1 34.0671 6.5668 -0.00750903
1 35.3198 7.28239 -0.0318282
1 36.5926 6.55081 -0.0304721
1 37.8359 7.27179 -0.00411413
1 39.0963 6.5426 -0.0149596
1 40.3292 7.26855 0.0116459
1 41.5856 6.57024 -0.0821451
1 42.9066 7.31519 -0.0186935
1 44.1304 6.55332 0.0142065
1 45.3655 7.28795 0.0228141
1 46.6569 6.54194 -0.00712412
1 47.8957 7.29672 -0.0151793
1 49.1573 6.5457 -0.0397939
1 50.4144 7.26086 0.0728822
1 51.7135 6.55522 -0.00147101
1 52.9462 7.25408 0.00237248
1 5.05287 8.73622 0.0451682
1 6.31076 9.44897 0.0140882
1 7.58176 8.72129 -0.0256841
1 8.85505 9.45518 -0.00876261
1 10.1027 8.74339 0.0118018
1 11.3355 9.47051 -0.0177166
1 12.6131 8.71446 -0.0505688
1 13.8473 9.48198 -0.0058061
1 15.1487 8.76957 0.0134415
1 16.384 9.47351 0.0239808
1 17.6357 8.74904 0.0223814
1 18.9042 9.47375 0.0490581
1 20.1732 8.72593 -0.0344515
1 21.4505 9.46251 0.0224923
1 22.713 8.7395 -0.0108005
1 23.9823 9.45587 0.00512572
1 25.2202 8.74069 0.0215629
1 26.4855 9.47425 0.0307472
1 27.7553 8.74377 -0.0152776
1 29.0225 9.46063 0.017067
1 30.263 8.75676 -0.0229059
1 31.5475 9.48603 -0.00741561
1 32.7951 8.73658 0.0264274
1 34.0204 9.48086 -0.0213768
1 35.2924 8.75371 0.0044341
1 36.5482 9.46821 -0.0337692
1 37.819 8.74288 0.0291453
1 39.0961 9.45683 0.0357488
1 40.3457 8.7569 0.0105393
1 41.629 9.45461 -0.0374845
1 42.8761 8.74677 0.00945738
1 44.131 9.48462 -0.0397043
1 45.3631 8.74285 0.00316097
1 46.6213 9.46199 0.0355586
1 47.9096 8.74632 0.0364488
1 49.1498 9.48513 0.0606417
1 50.4114 8.74661 0.0337104
1 51.6917 9.46233 0.0181397
1 52.9644 8.73197 0.0175287
1 54.2064 9.49807 0.0111376
1 6.29594 10.882 -0.0490451
1 7.58161 11.5955 -0.0164893
1 8.8373 10.9148 0.0113627
1 10.1073 11.6782 -0.0122008
1 11.3452 10.9217 -0.0260293
1 12.5956 11.6251 0.0176232
1 13.8571 10.918 0.0177796
1 15.148 11.6465 -0.0399538
1 16.4219 10.9289 -0.0715775
1 17.6458 11.6672 0.0232113
1 18.9138 10.9115 -0.0124836
1 20.1498 11.6539 0.0274684
1 21.4448 10.9238 0.0503019
1 22.6863 11.6566 -0.0106916
1 23.9512 10.8991 -0.0514069
1 25.2225 11.6424 -0.00547264
1 26.4811 10.9038 -0.0114522
1 27.7493 11.6419 -0.0170901
1 29.014 10.9196 0.0161598
1 30.2733 11.6839 -0.0345707
1 31.5288 10.94 -0.00753736
1 32.779 11.6648 -0.0232425
1 34.016 10.9088 -0.00792995
1 35.3044 11.6461 -0.0220613
1 36.5666 10.9209 -0.0434708
1 37.8309 11.6504 -0.0146925
1 39.0867 10.929 0.0303841
1 40.3125 11.6436 0.0398064
1 41.631 10.9095 -0.000647723
1 42.8935 11.5939 -0.0321571
1 44.1511 10.9224 -0.0387005
1 45.4178 11.6566 -0.0301534
1 46.6917 10.9037 0.0326658
1 47.9299 11.6641 -0.0078305
1 49.1954 10.9471 0.00835203
1 50.4256 11.6614 0.0240373
1 51.6884 10.9386 0.0281671
1 52.9697 11.6373 0.0206712
1 54.2165 10.9184 -0.0100497
1 55.4709 11.6729 0.00425766
1 7.58541 13.0799 0.0133539
1 8.82414 13.7924 -0.00261036
1 10.098 13.1115 -0.050003
1 11.3367 13.823 -0.0439243
1 12.5928 13.1028 0.00326648
1 13.8859 13.8405 0.000558922
1 15.149 13.1145 0.0253207
1 16.3935 13.81 0.0184885
1 17.6408 13.0772 0.0121525
1 18.9114 13.8138 -0.0228688
1 20.1493 13.1026 0.0374278
1 21.4376 13.8325 0.023527
1 22.7045 13.1394 0.0136332
1 23.9539 13.8314 0.0147138
1 25.2186 13.1093 0.0311054
1 26.4881 13.8389 -0.00715397
1 27.7396 13.0791 -0.00539606
1 28.9882 13.8239 -0.00211858
1 30.2545 13.1076 -0.0439646
1 31.4869 13.8396 -0.0309012
1 32.789 13.1168 -0.0432199
1 34.0261 13.8362 0.078995
1 35.2816 13.1133 -0.0635338
1 36.5567 13.8409 0.0223171
1 37.8614 13.1193 -0.00435663
1 39.074 13.8184 -0.00345018
1 40.338 13.0935 0.023776
1 41.5952 13.8186 -0.0148372
1 42.8694 13.0962 -0.0340951
1 44.1133 13.8159 0.0384386
1 45.4099 13.1039 0.0184699
1 46.6784 13.8097 -0.0224952
1 47.9228 13.1 0.0343787
1 49.1728 13.8502 0.0221859
1 50.4285 13.1155 0.00296373
1 51.678 13.8594 -0.0101786
1 52.965 13.1155 -0.00355158
1 54.2293 13.8618 0.0401457
1 55.5012 13.1049 0.0206781
1 56.7871 13.834 0.0487412
1 8.84992 15.2956 0.012893
1 10.0787 16.0112 -0.0185605
1 11.342 15.2848 -0.0145621
1 12.6023 16.0216 -0.0375614
1 13.8666 15.3015 -0.00565522
1 15.1087 16.0187 -0.0103889
1 16.401 15.2778 0.0201401
1 17.6569 16.0107 0.00922017
1 18.8997 15.2812 -0.00148849
1 20.1809 16.0017 -0.0251481
1 21.4233 15.2857 0.0401911
1 22.6951 16.0338 -0.00843629
1 23.9503 15.2744 -0.0357082
1 25.2219 15.9847 -0.0371788
1 26.4865 15.2748 -0.039299
1 27.7368 16.0036 -0.0352717
1 28.9839 15.2638 -0.000643895
1 30.2331 15.9738 -0.00287214
1 31.5142 15.29 0.0153874
1 32.7724 16.0221 0.0395795
1 34.0021 15.2997 0.0160029
1 35.2996 16.0083 -0.0300922
1 36.5525 15.2962 -0.0098067
1 37.8239 16.0257 -0.0277624
1 39.0628 15.2833 -0.0270509
1 40.3372 16.0188 0.0192339
1 41.5919 15.2929 0.031406
1 42.8635 16.0193 -0.0136441
1 44.141 15.3064 0.0258018
1 45.3812 16.0354 -0.00259925
1 46.6546 15.2892 -0.00773866
1 47.9377 16.0168 0.0209458
1 49.1857 15.2895 0.0228848
1 50.4521 16.0068 -0.0111028
1 51.6853 15.3008 -0.00793051
1 52.9514 16.0236 0.00414474
1 54.223 15.295 0.0116097
1 55.4949 16.0364 -0.0307034
1 56.7486 15.286 -0.0358857
1 58.0208 16.0344 -0.0248379
1 10.0747 17.4689 -0.0377675
1 11.3398 18.212 -0.034764
1 12.5915 17.4912 -0.0271905
1 13.8836 18.2111 -0.0274084
1 15.119 17.4379 0.0165647
1 16.4169 18.1873 0.00427764
1 17.6816 17.463 0.00559126
1 18.9185 18.1873 -0.0445273
1 20.1647 17.4786 0.0299019
1 21.4174 18.1993 0.0143882
1 22.6924 17.4607 0.0211222
1 23.9341 18.2221 0.0177447
1 25.2101 17.5013 0.0646509
1 26.5015 18.2352 -0.000335741
1 27.7414 17.4671 -0.00654782
1 28.9995 18.1754 0.0242291
1 30.2577 17.4492 -0.0239936
1 31.5185 18.1689 0.0184507
1 32.7783 17.4404 0.00703572
1 34.0639 18.1711 0.0363272
1 35.2938 17.4834 -0.029882
1 36.538 18.1764 -0.0555892
1 37.8169 17.477 0.00946492
1 39.0919 18.1994 -0.0230348
1 40.3575 17.4711 0.0175597
1 41.62 18.2166 0.020686
1 42.8448 17.4473 0.00652278
1 44.1185 18.1794 0.0105033
1 45.3712 17.4699 0.0265613
1 46.6643 18.1935 -0.046288
1 47.9109 17.4704 0.00522733
1 49.1818 18.1775 0.00865535
1 50.4183 17.4822 0.00732416
1 51.7031 18.2193 0.000316761
1 52.9639 17.4735 -0.0587146
1 54.2267 18.1889 -0.0204462
1 55.5282 17.4769 -0.0151387
1 56.7451 18.2028 -0.0123845
1 58.0232 17.4951 0.0174706
1 59.2837 18.1953 -0.0066805
1 11.3634 19.6583 -0.00539266
1 12.594 20.3735 0.0135387
1 13.9049 19.6423 0.0349744
1 15.1429 20.3877 -0.0228844
1 16.4122 19.6667 -0.013343
1 17.6953 20.3717 -0.0119873
1 18.9378 19.6244 -0.00231885
1 20.2154 20.3768 0.0171714
1 21.4483 19.6598 -0.0161194
1 22.6871 20.3788 -0.00299477
1 23.9441 19.6659 0.00343667
1 25.2078 20.3892 -0.0181712
1 26.477 19.7047 0.0378763
1 27.7292 20.4029 0.0258729
1 28.9952 19.661 0.00356068
1 30.271 20.3878 0.00863695
1 31.521 19.6626 0.0323795
1 32.7811 20.4018 -0.00374894
1 34.0257 19.6605 -0.0122095
1 35.3168 20.3876 0.0319077
1 36.5706 19.6545 0.0304279
1 37.822 20.3753 0.00978241
1 39.0847 19.6332 -0.00473057
1 40.359 20.4035 0.0528947
1 41.6551 19.6781 0.0288834
1 42.9009 20.3884 0.000199943
1 44.1275 19.6535 0.0196701
1 45.3668 20.4087 -0.0456659
1 46.6894 19.6666 0.00303771
1 47.9211 20.358 0.0186537
1 49.1739 19.6541 0.0102359
1 50.4366 20.4023 0.0174074
1 51.7082 19.6772 0.0165611
1 52.9408 20.4232 0.0191192
1 54.232 19.6558 -0.0386695
1 55.4842 20.3833 0.00418608
1 56.743 19.6107 -0.0137706
1 58.0193 20.3644 0.00571144
1 59.2507 19.6556 0.0270848
1 60.5361 20.3939 -0.00042212
1 12.5789 21.827 0.0109275
1 13.8367 22.5648 0.00299977
1 15.1771 21.8585 -0.00194272
1 16.4092 22.5702 0.00547751
1 17.6757 21.8332 -0.00746537
1 18.9083 22.5552 0.0306065
1 20.2085 21.8322 -0.0165003
1 21.4432 22.5614 -0.0161856
1 22.7001 21.8385 -0.0446445
1 23.9657 22.5694 0.014159
1 25.2173 21.8684 0.00164916
1 26.4785 22.5725 -0.0177181
1 27.7322 21.8561 -0.0327071
1 29.0033 22.597 0.00979413
1 30.2681 21.8493 -0.0304761
1 31.5385 22.5974 -0.0087048
1 32.8035 21.8556 -0.00246283
1 34.0573 22.5642 0.0185325
1 35.3049 21.8159 0.0214478
1 36.5557 22.5899 0.00661973
1 37.8436 21.8604 -0.00660215
1 39.0793 22.5471 -0.0264064
1 40.3224 21.87 -0.00128525
1 41.6115 22.5689 0.03792
1 42.883 21.8432 -0.01414
1 44.1238 22.5759 0.018003
1 45.3876 21.8415 -0.0179082
1 46.6534 22.5818 0.0175188
1 47.9323 21.8461 -0.0229739
1 49.2014 22.569 -0.0391942
1 50.4611 21.8735 -0.0361283
1 51.7197 22.5932 -0.00567957
1 52.9299 21.8563 -0.0301035
1 54.1943 22.5629 0.0524016
1 55.4971 21.8201 -0.00323171
1 56.7463 22.5431 -0.00838544
1 57.9884 21.8371 0.0376383
1 59.2516 22.5806 0.0186568
1 60.5253 21.843 -0.033759
1 61.776 22.5662 -0.0036591
1 13.8587 23.9766 0.0201984
1 15.1608 24.7683 0.00359911
1 16.4176 24.0637 0.0108093
1 17.65 24.7864 -0.0121445
1 18.906 24.0481 0.0128852
1 20.2011 24.7549 -0.0263352
1 21.4457 24.0008 -0.0230704
1 22.7062 24.7334 -0.028194
1 23.9544 23.9961 -0.0113948
1 25.1727 24.7517 -0.00981368
1 26.46 23.9779 -0.0392793
1 27.7157 24.7412 0.0630097
1 29.0018 24.0274 0.0025054
1 30.2698 24.7438 -0.0155702
1 31.5299 24.0265 0.0213435
1 32.7877 24.7695 -0.0305035
1 34.0424 24.0428 0.0301987
1 35.303 24.7616 0.000118561
1 36.5681 24.0308 -0.0331879
1 37.8577 24.7259 -0.00689208
1 39.0821 23.9914 0.00250468
1 40.3525 24.7559 -0.0262835
1 41.6182 24.0478 0.0315282
1 42.8694 24.7578 0.00669524
1 44.134 24.0253 0.0302633
1 45.3885 24.7523 0.0104835
1 46.646 24.0116 -0.0237754
1 47.8735 24.771 0.0139053
1 49.1766 24.0138 0.00328969
1 50.4313 24.7811 0.00260614
1 51.6991 24.0399 -0.0221514
1 52.957 24.7603 0.00467248
1 54.1853 24.0246 -0.00741018
1 55.4827 24.7565 -0.00630256