LAMMPS (8 Feb 2019)
OMP_NUM_THREADS environment is not set. Defaulting to 1 thread. (../comm.cpp:87)
  using 1 OpenMP thread(s) per MPI task
# 3D copper block simulation
boundary        p p p
units           metal
atom_style      atomic

# geometry
read_data	    data.pos
  triclinic box = (0 0 0) to (50.44 43.6823 4.11843) with tilt (25.22 0 0)
  1 by 1 by 1 MPI processor grid
  reading atoms ...
  800 atoms

mass		    *   12.0107

# EAM potential
pair_style      tersoff
pair_coeff      * * SiC.tersoff C
Reading potential file SiC.tersoff with DATE: 2011-04-26
neighbor        2. nsq
neigh_modify    every 1 delay 0 check yes

#Langevin random seed
variable        dt equal 2e-6
variable        r  equal 57085
variable        T  equal 300
variable        dT equal "v_dt * 100"

timestep        ${dt}
timestep        2e-06


min_style       cg
minimize        1e-6 1e-6 1000000 1000000
Neighbor list info ...
  update every 1 steps, delay 0 steps, check yes
  max neighbors/atom: 2000, page size: 100000
  master list distance cutoff = 4.1
  ghost atom cutoff = 4.1
  1 neighbor lists, perpetual/occasional/extra = 1 0 0
  (1) pair tersoff, perpetual
      attributes: full, newton on
      pair build: full/nsq
      stencil: none
      bin: none
Per MPI rank memory allocation (min/avg/max) = 3.959 | 3.959 | 3.959 Mbytes
Step Temp E_pair E_mol TotEng Press 
       0            0    -5914.079            0    -5914.079    17918.198 
       1            0    -5914.079            0    -5914.079    17918.198 
Loop time of 0.00797486 on 1 procs for 1 steps with 800 atoms

0.0% CPU use with 1 MPI tasks x 1 OpenMP threads

Minimization stats:
  Stopping criterion = energy tolerance
  Energy initial, next-to-last, final = 
        -5914.07896039     -5914.07896039     -5914.07896039
  Force two-norm initial, final = 4.02845e-11 1.53761e-11
  Force max component initial, final = 5.28955e-12 1.61959e-12
  Final line search alpha, max atom move = 1 1.61959e-12
  Iterations, force evaluations = 1 2

MPI task timing breakdown:
Section |  min time  |  avg time  |  max time  |%varavg| %total
---------------------------------------------------------------
Pair    | 0.0059798  | 0.0059798  | 0.0059798  |   0.0 | 74.98
Neigh   | 0          | 0          | 0          |   0.0 |  0.00
Comm    | 0          | 0          | 0          |   0.0 |  0.00
Output  | 0          | 0          | 0          |   0.0 |  0.00
Modify  | 0          | 0          | 0          |   0.0 |  0.00
Other   |            | 0.001995   |            |       | 25.02

Nlocal:    800 ave 800 max 800 min
Histogram: 1 0 0 0 0 0 0 0 0 0
Nghost:    1410 ave 1410 max 1410 min
Histogram: 1 0 0 0 0 0 0 0 0 0
Neighs:    0 ave 0 max 0 min
Histogram: 1 0 0 0 0 0 0 0 0 0
FullNghs:  14400 ave 14400 max 14400 min
Histogram: 1 0 0 0 0 0 0 0 0 0

Total # of neighbors = 14400
Ave neighs/atom = 18
Neighbor list builds = 0
Dangerous builds = 0

# initialize
velocity        all create $T 28459 rot yes dist gaussian mom yes
velocity        all create 300 28459 rot yes dist gaussian mom yes


reset_timestep  0


# fixes
fix             1 all langevin $T $T ${dT} 73504 zero yes
fix             1 all langevin 300 $T ${dT} 73504 zero yes
fix             1 all langevin 300 300 ${dT} 73504 zero yes
fix             1 all langevin 300 300 0.0002 73504 zero yes
# fix             1 all nve
# fix             2 all npt temp $T $T 0.01 iso 0 0 0.1
fix             2 all nve
fix             3 all phonon 10 50000 1000000 map.in Graphene nasr 50
# fix             5 all npt temp $T $T $(100.0*dt) iso 0 0 0.1

# output
#                    1    2    3  4  5     6   7
thermo_style    custom step temp pe ke press pxx pyy
thermo          100

restart         1000000 restart.one restart.two

dump            1 all xyz 50000 dump.graphene.xyz

# execution
run 	        6000000
Per MPI rank memory allocation (min/avg/max) = 4.783 | 4.783 | 4.783 Mbytes
Step Temp PotEng KinEng Press Pxx Pyy 
       0          300    -5914.079    30.983657    21565.231    30615.963    30564.167 
     100    298.90813   -5914.0089     30.87089    21567.525    30418.791    30678.084 
     200    305.13064   -5913.8647    31.513543    21674.904    30817.584    30539.641 
     300    297.19698   -5913.6858    30.694164    21618.401    30552.136    30840.627 
     400    289.08358   -5913.5068    29.856221    21560.172     30568.24    30608.872 
     500    309.27945   -5913.3353    31.942028    21843.873    30965.001    30837.281 
     600    306.50503   -5913.1706    31.655489    21847.641    30879.462    30788.555 
     700    291.47361   -5913.0096    30.103061     21700.67    30601.934    30717.173 
     800    302.09402   -5912.8571    31.199925    21860.443    31039.253    30919.893 
     900    311.04298   -5912.7016    32.124163    22002.409    30971.854    31201.384 
    1000    292.28288    -5912.539    30.186642    21809.867    30564.212    31288.814 
    1100    284.78935   -5912.4047    29.412718    21748.652    30170.854    31548.813 
    1200    301.74011    -5912.239    31.163373    21992.202    30738.838    31540.339 
    1300    295.63295   -5912.0934    30.532632    21950.574    30772.653    31602.714 
    1400    303.50671   -5911.9401    31.345826    22080.915     31292.92    31621.251 
    1500    297.75241   -5911.7805    30.751528    22044.752    30866.212    31621.359 
    1600    291.05116   -5911.6079     30.05943    21998.375    30769.855    31612.897 
    1700     304.9288   -5911.4165    31.492698    22208.709    31136.036    31695.771 
    1800    313.54945   -5911.2529    32.383029    22348.674     31219.81    32024.113 
    1900    287.19022   -5911.0814    29.660677    22066.664    31045.162    31535.049 
    2000    288.06934   -5910.9508    29.751472    22108.498     31086.31    31477.513 
    2100    295.36592   -5910.8506    30.505054    22218.132    31290.264    31836.028 
    2200    299.41554   -5910.7278    30.923295    22292.033    31511.504     31975.26 
    2300    302.92071   -5910.5621    31.285305    22370.802    31408.457    32143.039 
    2400    294.63186   -5910.3995    30.429242    22304.632    31604.583    31799.053 
    2500    288.80766   -5910.1976    29.827725    22274.503    31742.075    31483.371 
    2600    295.08128   -5909.9805    30.475657    22396.366    32046.775    31725.432 
    2700    292.23142    -5909.794    30.181326    22399.805    32279.815    31440.527 
    2800    317.65516   -5909.6278    32.807061    22742.986    32452.812     31980.96 
    2900    297.77364   -5909.4827    30.753721    22535.575    32466.942    31600.378 
    3000    296.78955   -5909.3909    30.652085    22544.995    32539.224    31809.108 
    3100    301.24213   -5909.2873    31.111942    22623.704    32459.155     31785.03 
    3200    298.40545   -5909.1542    30.818973     22616.68    32591.988    31475.591 
    3300     296.7943   -5908.9995    30.652576    22629.404    32896.747      31452.1 
    3400    292.46887   -5908.9109     30.20585    22595.785     32875.05    31475.159 
    3500    300.71212   -5908.8577    31.057204    22709.417     33002.69    31525.539 
    3600    313.42568   -5908.7982    32.370246    22873.708    33491.918    31286.506 
    3700    292.40629   -5908.7052    30.199387    22636.363    33361.472    30978.991 
    3800    297.96452   -5908.5776    30.773435    22732.382    33281.108    31325.601 
    3900    293.45305   -5908.4599    30.307495     22700.86    33203.045     31249.78 
    4000    305.98381   -5908.3401    31.601657    22875.818    33376.371    31304.845 
    4100    303.88323    -5908.212    31.384712     22877.03    33181.056    31668.266 
    4200    306.35045   -5908.1027    31.639524    22930.561    33198.876     31819.36 
    4300    288.34748   -5907.9639    29.780198    22740.388    33285.343        31649 
    4400    287.66609   -5907.8476    29.709825      22757.1    33217.609    31529.052 
    4500    292.63155   -5907.7243    30.222652    22844.565    33121.581    31791.501 
    4600    293.60214   -5907.5872    30.322893    22889.861    32899.361    32477.883 
    4700    291.44133   -5907.3887    30.099727    22907.377    33005.866    32462.626 
    4800    291.04539   -5907.2372    30.058835    22933.231    33466.672    32208.659 
    4900    297.99315   -5907.0442    30.776392    23060.781    33662.047    32022.345 
    5000    300.74636   -5906.8819     31.06074    23129.506    33921.225    31790.944 
    5100    295.07357    -5906.789    30.474861    23082.667    33789.615     31672.95 
    5200    290.43034   -5906.7599    29.995313    23029.986    33858.969    31760.058 
    5300    304.63549   -5906.6421    31.462405    23226.846    33939.148    31859.922 
    5400    304.54625   -5906.5005    31.453188    23253.919    34294.235    31954.325 
    5500    298.79348   -5906.3747    30.859048    23209.351     34304.51    31670.803 
    5600    297.79818   -5906.2451    30.756255    23221.216    34147.469    31821.065 
    5700    306.00975   -5906.1317    31.604337    23344.715    34596.032    31943.081 
    5800    294.74064   -5906.0199    30.440476    23229.239    34069.998     32048.03 
    5900    297.08891   -5905.9843    30.683003    23258.251    34270.273    32004.894 
    6000    287.97588   -5905.8787    29.741819    23170.637    34307.441    31662.371 
    6100    295.55782   -5905.7959    30.524874    23277.425    34389.835    31861.971 
    6200    294.96603   -5905.7089    30.463754    23291.163    34543.781     32027.72 
    6300    314.94783   -5905.6282    32.527452    23554.547    34419.488    32512.433 
    6400    313.88159   -5905.5587    32.417332     23558.62    34188.164    32783.616 
    6500    292.03945   -5905.4355    30.161501    23322.592    33543.896    33086.415 
    6600    295.79492    -5905.335    30.549361    23391.364    33761.652    32942.203 
    6700    306.12025   -5905.2554    31.615749    23535.912    34012.978    32996.296 
    6800    290.20193   -5905.2386    29.971723    23345.618    33648.491    32949.493 
    6900     285.3846   -5905.2199    29.474194    23289.113    33651.561    32872.805 
    7000    295.11291   -5905.2074    30.478924    23407.083    33671.984    33219.015 
    7100     301.2099   -5905.1448    31.108614    23491.994    33584.227     33613.68 
    7200    296.09538   -5905.0234    30.580392    23453.479    33516.442     33420.82 
    7300    303.05006    -5904.905    31.298663    23562.099    33751.102     33563.18 
    7400    287.69355   -5904.8302    29.712661    23387.703    33680.724    33319.491 
    7500     286.8012   -5904.7516    29.620499    23395.695     33386.92    33640.937 
    7600    313.52604   -5904.6893     32.38061    23734.452    33766.342    33826.655 
    7700    304.69249   -5904.5921    31.468292     23647.26    33506.744    34121.854 
    7800    287.00387   -5904.4742    29.641431    23450.907    33692.976    33527.218 
    7900    302.40081   -5904.4004    31.231609    23648.978    33851.005    33499.229 
    8000    312.72891   -5904.3267    32.298284    23789.237    34025.661    34025.813 
    8100      306.388   -5904.2456    31.643402    23727.907    33769.184    34014.651 
    8200      294.287   -5904.1336    30.393625    23602.352    33723.184    33819.995 
    8300    296.68717    -5904.006    30.641511    23662.369     33375.18     34022.74 
    8400    295.72426   -5903.8838    30.542063    23679.925    33626.224    34029.611 
    8500    304.84755   -5903.7509    31.484306     23824.75    33808.636    34242.427 
    8600    294.35853   -5903.6608    30.401012    23714.645    33805.268    33747.447 
    8700    306.52666   -5903.6545    31.657722    23856.459     34100.08    34057.172 
    8800    313.02712   -5903.6361    32.329083    23938.101    34057.726    34269.695 
    8900    306.10558    -5903.578    31.614234    23861.155    34226.873    34034.028 
    9000      309.443   -5903.4407    31.958919    23926.026    33991.538    34303.888 
    9100    305.60954   -5903.3148    31.563003    23905.389    33923.976    34389.819 
    9200    290.59976   -5903.1996     30.01281    23744.938    33834.557    34131.235 
    9300    291.29485   -5903.0713    30.084598    23777.107    33606.831    34475.851 
    9400     293.2741   -5903.0307    30.289013    23799.346    33655.123    34233.989 
    9500    302.64739   -5903.0589    31.257076    23893.678    33823.192    34529.742 
    9600    306.68825   -5903.0219    31.674412    23942.461     33636.26     34627.42 
    9700    290.97941   -5902.9686     30.05202    23761.906    33827.604    34159.055 
    9800    296.58361   -5902.8958    30.630816    23842.047    33579.738    34661.278 
    9900    297.13333   -5902.8685    30.687591    23849.028    33657.781    34593.125 
   10000    282.90005    -5902.825    29.217594    23687.538     33588.27    34072.626 
   10100    297.69663   -5902.7704    30.745768    23878.298    33896.992     34449.96 
   10200    295.84954   -5902.7488    30.555002    23856.883    33796.921    34408.223 
   10300    287.10032   -5902.7094    29.651393    23752.789    33622.433    34397.606 
   10400    294.19173   -5902.6538    30.383785    23853.511    33871.693    34162.127 
   10500    304.06802   -5902.6581    31.403797    23974.807    34035.418    34368.236 
   10600    300.56716   -5902.5564    31.042233    23958.996    34411.948    34203.943 
   10700    290.57792   -5902.4787    30.010556     23866.99    33899.411    34282.482 
   10800    276.05074   -5902.4429    28.510205    23701.745     33926.18    34176.228 
   10900    287.21462   -5902.3628    29.663197    23856.947    33833.942    34246.917 
   11000    293.93312     -5902.23    30.357077     23974.23    34405.306    34496.677 
   11100    302.99527   -5902.1146    31.293005    24118.124    34438.232    34713.513 
   11200     304.8657   -5902.0049    31.486181     24164.24    33845.557    35242.644 
   11300     309.8399   -5901.9818     31.99991    24227.411    33765.865    35078.656 
   11400    300.52002   -5901.9685    31.037364    24119.914    33590.262    35361.657 
   11500    294.77455   -5901.9669    30.443979    24052.204    33599.816    35108.825 
   11600    295.32278   -5902.0005    30.500599    24053.227    33684.555    35264.965 
   11700    298.28398   -5902.0609    30.806428    24077.673    33608.745    35179.493 
   11800    316.80296   -5902.0632    32.719047    24301.157    34172.464    35368.241 
   11900    299.36618   -5901.9796    30.918197    24100.517    33791.255    35405.741 
   12000    313.49358   -5901.8663    32.377258    24292.612    33649.349    35572.048 
   12100    304.40823   -5901.7511    31.438934     24200.34    33473.589    35674.082 
   12200     293.7436   -5901.7005    30.337503    24080.013    33493.183     35434.12 
   12300    302.47391   -5901.6387    31.239159    24200.278    33755.444    35560.756 
   12400    303.00981   -5901.6256    31.294507    24206.263    34052.186      35247.9 
   12500    295.26242   -5901.5654    30.494365    24116.822    33581.366     35336.53 
   12600     300.6422   -5901.5579    31.049983    24177.656    33911.914    35314.242 
   12700    287.45293   -5901.4976     29.68781    24024.887    33754.267    35306.112 
   12800    296.74884   -5901.4541    30.647881    24142.332    33647.009    35552.668 
   12900    290.95383   -5901.4412    30.049378    24075.795    33604.092    35489.776 
   13000    307.22887   -5901.3338    31.730247    24295.508    33668.631    35683.896 
   13100    306.49373   -5901.2785    31.654322     24297.73    33331.114    36103.521 
   13200    302.48984   -5901.2036    31.240804    24266.704    33343.815    35985.819 
   13300    292.52321   -5901.1666    30.211462    24153.325    33287.478    35748.379 
   13400    299.00417   -5901.1582    30.880809    24226.683     33422.39    35893.885 
   13500    300.05134   -5901.1336     30.98896    24243.757    33172.878    35854.831 
   13600    298.83419   -5901.1701    30.863253    24216.172    33101.046    36391.464 
   13700    309.26063   -5901.2054    31.940084    24332.242    33314.517    36369.067 
   13800    301.24846   -5901.2459    31.112596    24220.134    33541.162    36023.871 
   13900    303.53105   -5901.3087    31.348339     24221.87    33549.056    35873.686 
   14000    332.15918   -5901.2633     34.30502    24572.714    34377.568    35799.411 
   14100     306.0855   -5901.2368     31.61216    24258.086    34099.888    35369.914 
   14200     284.0683   -5901.1975    29.338249    23999.487    33956.421    35135.245 
   14300     298.4596   -5901.1678    30.824566    24182.977    34638.458     34849.73 
   14400    295.18296   -5901.1264    30.486158    24158.626    34481.494    34807.539 
   14500    288.72906   -5901.0703    29.819607    24095.932    34512.565    34779.443 
   14600    299.10526   -5900.9614    30.891249     24251.24    34390.869    35093.625 
   14700    298.71874    -5900.864     30.85133    24269.717    34420.161    35386.186 
   14800     300.2227   -5900.8352    31.006656    24291.398    34710.442     34940.66 
   14900    303.31834   -5900.7477    31.326371    24343.699    34704.558      35140.9 
   15000    309.47844   -5900.6898     31.96258    24419.764    34791.139    35174.827 
   15100    319.39619   -5900.5931    32.986873    24559.848    35148.829    35046.482 
   15200    292.48129   -5900.5195    30.207133    24245.388    34918.401    34561.584 
   15300    298.68399   -5900.4719    30.847741     24334.19    35160.468    34706.234 
   15400    305.24665   -5900.4518    31.525525     24423.71    35394.341    34421.298 
   15500    296.83236   -5900.4722    30.656507    24320.096    35308.647    34526.931 
   15600    298.10657   -5900.4333    30.788105    24346.403    35116.835    34612.954 
   15700    294.27935   -5900.4247    30.392834    24294.252    35267.366    34514.027 
   15800    314.39356   -5900.4311    32.470207    24535.261    35428.861    34848.513 
   15900    308.82409   -5900.3247    31.894998    24498.911    35110.132    35009.391 
   16000    300.20581   -5900.2574    31.004913    24407.077    35300.533    34642.104 
   16100     299.6535   -5900.1541     30.94787    24422.052    35017.337     34879.28 
   16200    302.35168   -5900.1065    31.226536     24457.71     34935.28    35094.058 
   16300    315.35192   -5899.9905    32.569186    24639.152    35295.276    35023.879 
   16400     301.9534   -5899.8485    31.185401    24504.811    35286.786    34944.608 
   16500    311.29522   -5899.7797    32.150214     24634.49    35591.944    34936.236 
   16600    317.77927   -5899.7178    32.819879    24727.836    35775.079    34956.335 
   16700    304.83188   -5899.7281    31.482688    24572.156    35482.574     34802.95 
   16800    306.33795   -5899.7271    31.638233    24592.822    35667.929     34834.69 
   16900    312.06648   -5899.7235    32.229869    24665.237    35907.078    34662.582 
   17000     306.4558   -5899.7614    31.650404    24592.873    35599.469    34834.627 
   17100    293.25343   -5899.7566    30.286878    24435.753    35304.128    34782.724 
   17200    304.07352   -5899.7126    31.404366    24580.971    35721.723    34672.201 
   17300    306.19304   -5899.6672    31.623267    24623.054    35658.283    35177.697 
   17400    311.44095   -5899.5552    32.165265    24713.746    35857.353    35061.375 
   17500    293.45156   -5899.4442    30.307341    24520.533    35439.396    35050.911 
   17600    295.37167   -5899.3849    30.505649    24553.862    36073.805    34482.322 
   17700    284.14368   -5899.2372    29.346034    24452.896    35738.907    34786.229 
   17800    310.71555   -5899.1094    32.090347    24805.724    36099.622    34927.827 
   17900    307.61316    -5898.997    31.769936    24798.793    35724.464    35051.821 
   18000    307.75152   -5898.8568    31.784225    24840.098    36110.392    35166.331 
   18100    298.04658   -5898.7674     30.78191    24743.566    36069.434    35118.613 
   18200    296.83362   -5898.7536    30.656637    24725.806    35836.446    35089.896 
   18300    309.37334   -5898.7327    31.951725    24879.183    35769.054    35363.052 
   18400    296.40904   -5898.6968    30.612787    24725.485    35793.126    35168.012 
   18500      288.283   -5898.6552    29.773538    24628.612    35842.139    34836.915 
   18600    303.08399   -5898.6035    31.302168    24812.799    35836.721    35230.835 
   18700     304.3569   -5898.6255    31.433633    24815.192    35832.464    35308.331 
   18800    309.36734   -5898.5964    31.951105    24872.458    36257.299    35026.689 
   18900    304.31612   -5898.4856     31.42942    24831.633    36218.099    34974.337 
   19000    296.61698    -5898.395    30.634263    24753.071    36200.885    35092.197 
   19100    291.41651   -5898.3406    30.097164    24695.483    36311.667    34676.961 
   19200    303.89248   -5898.3247    31.385667    24840.189    36668.575    34609.182 
   19300    309.00853   -5898.3434    31.914047    24887.005    36490.994    34791.044 
   19400    305.24932   -5898.3985      31.5258    24826.287    36367.765    34760.352 
   19500    311.42191   -5898.4056    32.163298    24893.541    36423.517    34741.059 
   19600    305.71356   -5898.3713    31.573746    24825.586    36736.196    34528.649 
   19700    298.24669   -5898.3754    30.802577    24727.921    37087.068    33898.108 
   19800    305.51798   -5898.3898    31.553547    24807.634    36897.737     34350.42 
   19900     304.3967   -5898.4078    31.437743    24786.239    36528.251    34350.477 
   20000    313.07942   -5898.3593    32.334485     24893.31    36818.953    34411.613 
   20100    307.89298   -5898.3429    31.798835    24832.085     36791.29    34233.431 
   20200    311.59894   -5898.4011    32.181582    24858.878    37251.439    34032.865 
   20300    315.06287   -5898.4042    32.539332    24897.769    37008.817    34612.824 
   20400    292.61501   -5898.3466    30.220943     24639.42    36688.838    34194.762 
   20500      291.463   -5898.3423    30.101966    24627.332    36337.088    34424.538 
   20600     283.6804   -5898.3704    29.298187    24528.968    36334.312     34512.51 
   20700    285.41661   -5898.4147    29.477501    24538.768    36066.539    34388.967 
   20800    298.20945   -5898.4237    30.798731    24697.979    36262.757    34407.316 
   20900    299.99133   -5898.4216    30.982761    24717.967    36598.149    34470.368 
   21000    301.82411   -5898.3929    31.172049    24739.244    36616.444    34364.089 
   21100    308.97135   -5898.3472    31.910208    24822.713     36822.61    34675.809 
   21200     315.5107   -5898.3043    32.585585    24893.913    36654.482    34956.924 
   21300    296.75133   -5898.1924    30.648137    24681.172    36012.499      34926.2 
   21400    300.03905   -5898.1498     30.98769    24722.467    36283.532    34656.446 
   21500    295.22994   -5898.1234     30.49101    24661.874    36214.976    34646.954 
   21600    304.66047   -5898.0837    31.464985    24781.422    36281.776    34773.759 
   21700    280.97406   -5898.0169    29.018679    24512.137    35804.731    34688.872 
   21800    293.64352   -5898.0016    30.327167     24660.76    36503.699    34557.776 
   21900     301.7558   -5897.9443    31.164993    24772.067    36433.079    34835.086 
   22000    297.76247   -5897.9067    30.752567    24725.254    36344.553    34739.212 
   22100    291.45774   -5897.8938    30.101421    24647.243    35986.773    34816.205 
   22200    292.81131     -5897.84    30.241217     24678.92    35976.872    34945.149 
   22300    300.08182    -5897.771    30.992107    24777.567    36043.948    35173.873 
   22400    287.45076    -5897.724    29.687586    24628.233     35878.64    35022.655 
   22500      313.978   -5897.6954    32.427288    24956.041     36253.92    35371.187 
   22600    292.71485   -5897.7099    30.231255    24685.938     35964.95    35105.511 
   22700      315.161   -5897.6216    32.549467    24970.582    36293.148    35146.607 
   22800    305.90549   -5897.5595    31.593569    24860.711    36195.491    35119.339 
   22900    288.34078   -5897.4942    29.779506    24652.424     36140.32    35146.567 
   23000    310.90856   -5897.4151     32.11028    24941.072    36227.184    35297.565 
   23100    302.15827   -5897.3713     31.20656     24842.69    35896.148    35423.797 
   23200    299.88589   -5897.3032    30.971871    24834.453    36136.949    35462.214 
   23300    300.22025   -5897.2331    31.006404    24862.708    35964.905    35548.217 
   23400    328.92239    -5897.248    33.970728    25214.959    36662.864    35624.036 
   23500    297.18314    -5897.225    30.692735    24833.209    36095.613    35446.062 
   23600    307.77012   -5897.2016    31.786145     24961.94    36504.706    35236.821 
   23700    304.94788   -5897.2674    31.494668    24913.357    36883.741    35287.698 
   23800    307.35404   -5897.3642    31.743174    24918.575    36870.918    35034.722 
   23900    299.30144   -5897.4857     30.91151    24788.434    36454.401    34924.449 
   24000    289.32389   -5897.5171     29.88104    24661.251     36425.33    34816.672 
   24100    312.61226   -5897.5471    32.286237    24933.498    36893.171    34692.928 
   24200    295.84678   -5897.5295    30.554717    24730.253    36949.777    34496.506 
   24300    282.47823    -5897.441    29.174029    24580.047    36937.664    34127.777 
   24400     287.6084    -5897.463    29.703866    24630.194    36870.152    34328.059 
   24500    307.07666   -5897.4676    31.714526    24855.932    37208.345    34136.565 
   24600    306.70669   -5897.4491    31.676317     24848.83     36971.07    34332.219 
   24700    292.58607   -5897.4732    30.217955    24667.803    36498.851    34617.328 
   24800    302.58953   -5897.5464      31.2511    24764.659     36612.37    34700.193 
   24900    296.04845   -5897.5693    30.575545    24673.598    36670.803    34250.987 
   25000    300.57687   -5897.5819    31.043236    24722.208    36401.409    34775.678 
   25100    302.88548   -5897.5151    31.281665    24765.363    36714.283    34698.276 
   25200    286.72203   -5897.4715    29.612324    24578.895    36297.993    34665.866 
   25300    295.03083   -5897.3818    30.470447    24704.039    36435.612    34962.541 
   25400    295.45467   -5897.3619    30.514221     24713.89    36519.233    34752.286 
   25500    306.68306   -5897.3291    31.673876    24860.062    36630.985    34826.691 
   25600    302.85353   -5897.2788    31.278366    24816.677    36656.195    34831.049 
   25700    301.42342   -5897.2311    31.130666    24801.336    36597.691    34539.588 
   25800    295.99771   -5897.2014    30.570305    24733.095    36659.038    34643.314 
   25900    294.78914   -5897.2047    30.445485    24717.842    36515.072    34919.341 
   26000    291.49338   -5897.1684    30.105103    24681.527    36495.868    34860.146 
   26100    290.44309   -5897.1387     29.99663    24670.411    36109.309    34821.973 
   26200    298.76228   -5897.1721    30.855827    24766.025    35948.901    35536.875 
   26300    313.33084   -5897.2214     32.36045    24931.066    35907.192    35904.105 
   26400    302.80619   -5897.1882    31.273477    24810.203     35887.86    35413.215 
   26500    294.99626   -5897.1913    30.466877    24707.847    35967.701     35278.64 
   26600    314.46198   -5897.2351    32.477274    24929.665    36660.371     35145.89 
   26700    287.27048   -5897.2163    29.668966    24601.695    36038.173    34937.543 
   26800    309.05124   -5897.2155    31.918459     24863.99    35816.401     35553.92 
   26900    299.89904   -5897.1533     30.97323    24767.531    35648.707    35725.585 
   27000     297.3321   -5897.0869    30.708119    24751.033    35772.636    35467.264 
   27100    291.67807   -5897.1256    30.124178     24666.97    35521.599    35294.816 
   27200    291.26312   -5897.1663    30.081322    24654.987    35525.161    35298.217 
   27300     285.6438   -5897.1798    29.500965    24585.176    35847.976    34972.191 
   27400    298.78868   -5897.1713    30.858553     24744.26    36016.616    35186.154 
   27500    298.72118   -5897.0713    30.851582    24766.225    36354.411    35003.459 
   27600    283.49264   -5897.0404    29.278795    24590.186    35989.993    34873.966 
   27700      294.472   -5897.0325    30.412732    24724.693    36234.471    35204.574 
   27800    308.24124   -5897.0269    31.834803    24902.977    36300.667    35222.039 
   27900    317.76434   -5897.0101    32.818337    25024.044    36686.613    35067.683 
   28000    294.87178    -5896.998    30.454021    24735.602    36349.984    35095.364 
   28100    285.46794   -5896.9324    29.482802    24631.796    36178.659    35088.086 
   28200    292.37429   -5896.8519    30.196082    24737.085    36244.576    35223.692 
   28300    304.34762   -5896.7337    31.432674    24911.219    36139.138    35625.061 
   28400    301.97214   -5896.6185    31.187338    24903.232    36132.957    35536.148 
   28500    296.87027   -5896.4884    30.660421    24862.734     36320.12    35273.637 
   28600    301.02056   -5896.4763    31.089059     24901.72    35973.965    35719.069 
   28700    299.57348    -5896.427    30.939607    24885.133    36189.149    35537.239 
   28800    307.15063   -5896.4301    31.722166    24970.252    36444.559    35448.556 
   28900    308.01288   -5896.3846    31.811218    24984.144    36255.469    35542.831 
   29000    297.53151   -5896.3822    30.728714    24855.071     35957.64    35728.839 
   29100    300.18794   -5896.2578    31.003067    24911.942    36553.937     35440.75 
   29200    298.02321   -5896.1178    30.779496    24920.221    36061.715    35434.932 
   29300    299.61008   -5896.0645    30.943386    24960.274    36249.155    35752.978 
   29400    294.76481   -5896.0665    30.442973    24899.477    36335.536    35632.552 
   29500    309.85821     -5896.05    32.001802    25082.517    36121.365    35576.798 
   29600    296.36525   -5896.0305    30.608264    24919.544    36289.415    35600.929 
   29700    295.35298   -5896.0344    30.503717    24893.891    36448.072    35357.218 
   29800    304.37608   -5896.0793    31.435613    24989.828    36658.351    35594.812 
   29900    303.24643   -5896.1265    31.318945    24960.797    36848.432    35142.495 
   30000    301.14628   -5896.2076    31.102043    24916.421    36621.679    35150.992 
   30100    299.04581   -5896.2483    30.885109    24884.259    36757.232    34822.611 
   30200     289.5455   -5896.1839    29.903928    24783.447    36718.889    35113.427 
   30300    307.95166   -5896.0839    31.804895    25029.001    36857.891     35278.84 
   30400    307.55298   -5896.0261     31.76372    25033.837    36579.935    35570.316 
   30500    295.64022   -5896.0063    30.533384    24889.864    36223.273    35570.974 
   30600    289.29553   -5895.9824    29.878111    24816.837    36074.761    35652.207 
   30700    290.29548    -5895.918    29.981385    24829.744    35922.932    35823.077 
   30800    286.27079   -5895.9019     29.56572    24781.817    35916.551    35665.962 
   30900    294.90358   -5895.9244    30.457305    24875.093    35895.136    35931.965 
   31000    303.51233   -5895.8915    31.346406    24986.053     35942.13    36232.421 
   31100    286.92834   -5895.8317     29.63363    24806.196    35868.867    35794.226 
   31200    290.08228   -5895.8344    29.959366    24847.061    35767.249    36076.095 
   31300    297.18057   -5895.8164    30.692469    24935.754    35997.556    35943.441 
   31400    304.89078   -5895.8141    31.488771    25023.592    36153.495    35918.274 
   31500    304.57482   -5895.8733    31.456138     25002.83    35836.233    36086.078 
   31600     302.6878   -5895.8704     31.26125    24975.216    36075.045    35954.827 
   31700     293.3159   -5895.9404     30.29333    24844.351    35850.034    35669.823 
   31800    306.35666    -5895.973    31.640165    24996.226    36077.321    35900.537 
   31900     307.2235   -5896.0457    31.729692    24984.072    36131.297    35915.494 
   32000    298.51254   -5895.9824    30.830033    24885.753    36039.223    35403.777 
   32100    281.26029    -5895.917    29.048241    24677.822    35922.404    35439.794 
   32200    288.78519   -5895.7964    29.825404    24782.924    35737.104    35921.642 
   32300    291.57112   -5895.6681    30.113132    24839.494     35295.83    36070.476 
   32400    301.55343   -5895.6182    31.144093    24963.483    35134.466    36702.888 
   32500    294.78888   -5895.5721    30.445458    24876.883    35068.097    36821.627 
   32600    299.98292     -5895.58    30.981893    24928.598    34971.732    36755.686 
   32700    287.16485    -5895.564    29.658057     24775.08    34908.028    36697.422 
   32800    309.43765   -5895.5362    31.958367    25044.033    35515.644    36632.495 
   32900    292.58519   -5895.5198    30.217864    24832.905    35499.681    36340.968 
   33000    298.07784   -5895.5596    30.785138    24884.594    35688.137    36284.435 
   33100    291.36894   -5895.6368    30.092251    24779.927    35367.038    36282.633 
   33200    305.31388   -5895.6945    31.532468    24934.972    35485.053    36220.813 
   33300    280.11831   -5895.7258    28.930299    24622.696    35465.083    36006.741 
   33400    304.07363   -5895.7119    31.404376    24924.373    35273.504    36561.873 
   33500    318.30736   -5895.6981     32.87442    25094.855    35351.982    37144.393 
   33600     306.1585   -5895.6993      31.6197    24959.772    35090.889    36620.714 
   33700    308.03135   -5895.6952    31.813125    24989.734    35091.725    37200.424 
   33800    280.79701   -5895.6772    29.000394    24663.913    34715.149    36596.029 
   33900    303.64792   -5895.6138     31.36041    24951.629    35055.412    36818.519 
   34000    291.59586   -5895.6578    30.115687     24803.48    34823.484    36655.672 
   34100    291.37739   -5895.7183    30.093124    24794.666    34466.299    36681.149 
   34200    304.15504   -5895.7554    31.412784    24940.053    34742.567    36930.483 
   34300     285.5692   -5895.7694     29.49326    24706.601    34232.693    37114.118 
   34400     298.8768   -5895.7722    30.867654     24862.73    34412.666    37264.958 
   34500     312.5915   -5895.7749    32.284093    25020.546      34790.5    37359.534 
   34600    290.34645    -5895.828    29.986649    24734.283     34744.47    36938.253 
   34700     300.5152   -5895.8577    31.036866    24841.325    35010.483    36866.319 
   34800    293.25954   -5895.8507     30.28751    24750.914    34602.662    36779.404 
   34900    299.35322   -5895.8878    30.916858    24808.685    34704.145    36545.076 
   35000    314.31344   -5895.9755    32.461932    24963.377    34886.686      37082.5 
   35100     289.0888   -5896.0882    29.856761    24629.424    34801.936    36352.865 
   35200    300.71655   -5896.1177    31.057662    24766.344    34779.673    36704.253 
   35300    304.40454   -5896.1319    31.438552    24803.626    34836.466    36899.928 
   35400    304.39944    -5896.073    31.438026    24807.924    34925.933    36444.289 
   35500    287.00319   -5896.0358    29.641361    24600.398    35081.085    35911.159 
   35600    291.47054   -5895.9558    30.102744    24669.333    34938.789    36254.553 
   35700    290.11213   -5895.9178    29.962448    24657.145    34874.691    36413.551 
   35800    285.70065   -5895.8565    29.506836    24606.273    34797.495     36347.15 
   35900    304.71204   -5895.7381    31.470311    24858.347    35093.766    36544.297 
   36000    303.39908   -5895.6735     31.33471    24865.226    35234.083    36515.333 
   36100    300.71728    -5895.646    31.057737    24841.094    35072.512    36534.641 
   36200    293.21206    -5895.592    30.282606    24758.558    35100.822    36527.982 
   36300    294.01755   -5895.4997    30.365796    24793.039    35348.151    36183.964 
   36400    284.47197   -5895.4319     29.37994    24694.607    35386.886    36112.888 
   36500    297.93256   -5895.3672    30.770134    24874.076    35481.731    36704.837 
   36600    295.99531   -5895.3157    30.570057    24867.406    35511.214    36311.108 
   36700    295.70989   -5895.2586    30.540579    24879.531    35546.503    36430.059 
   36800    290.39015   -5895.2307    29.991162    24818.332    35429.125    36388.918 
   36900    299.08344   -5895.1877    30.888996    24933.185    35610.726    36637.692 
   37000    287.50102   -5895.0993    29.692777    24811.298    35455.116    36370.781 
   37100    285.61342   -5895.0984    29.497827    24792.756    35432.389    36345.144 
   37200    295.84046    -5895.089    30.554065    24920.294    35554.445    36465.772 
   37300    292.35683   -5895.0585    30.194279    24885.633    35856.589    36303.683 
   37400    299.04293   -5894.9743    30.884812    24989.341    35673.785     36552.47 
   37500    307.02483   -5894.8956    31.709173    25110.834    35794.037    36836.632 
   37600    306.54296   -5894.9005    31.659406    25098.696    35797.224    36665.554 
   37700    294.27633   -5894.9233    30.392523    24937.214    35725.955    36277.945 
   37800    292.33783   -5894.9359    30.192317    24898.493    35714.557    36358.337 
   37900    296.35293   -5894.9028    30.606991    24950.955    36056.953    36288.977 
   38000    295.33847   -5894.8945     30.50222    24931.515    35871.566    36152.148 
   38100    292.00046   -5894.9455    30.157473    24857.448    35576.077    36090.794 
   38200    313.71326   -5894.9709    32.399947    25097.931    36093.718    36013.129 
   38300    301.43919   -5894.9469    31.132295     24946.24    35906.685    36100.387 
   38400    295.70073   -5894.9126    30.539633     24887.52    35958.599    36190.778 
   38500    299.43028   -5894.8111    30.924817    24959.599     35797.07    36338.954 
   38600    301.64674   -5894.7637     31.15373    25002.494    35831.182    36214.126 
   38700    314.50368   -5894.7037     32.48158    25175.747    36045.311    36309.491 
   38800    298.15133   -5894.6428    30.792729    24994.994    35810.302    36455.244 
   38900    291.30583   -5894.6251    30.085733    24920.058    35988.692    35940.854 
   39000    297.38529   -5894.5597    30.713613    25001.765     35988.64    36368.132 
   39100    306.56072   -5894.4733    31.661241    25124.383    36054.621     36325.42 
   39200    288.85485   -5894.4872    29.832599    24893.964     36039.26    36060.684 
   39300    293.12084   -5894.5998    30.273185    24909.206    35903.511    36465.741 
   39400    310.89571   -5894.5876    32.108953     25122.14    35893.103     36690.78 
   39500     301.9579    -5894.535    31.185867    25022.036     35738.93    36586.476 
   39600    315.69051   -5894.5186    32.604154    25187.459    36237.736    36609.982 
   39700    295.58071   -5894.5327    30.527237    24935.936     35978.09    36235.009 
   39800    282.22217    -5894.489    29.147583    24777.296    35860.611     36005.84 
   39900    293.57687   -5894.4772    30.320283    24914.794     36023.01    36267.334 
   40000    305.55471   -5894.4499    31.557341    25064.815    36064.067    36562.765 
   40100     296.0665   -5894.4525    30.577409    24947.801    36069.127    36151.701 
   40200    292.55888   -5894.4439    30.215146     24905.65     35791.83    36385.876 
   40300    304.63337   -5894.3941    31.462186    25059.411    35942.737    36467.203 
   40400    299.09365   -5894.2905     30.89005    25010.139    35955.032    36196.394 
   40500    307.27611   -5894.1329    31.735126    25149.048     35925.96    36833.591 
   40600     279.8947   -5894.0321    28.907205    24836.941    35524.554    36747.011 
   40700    304.29845   -5894.0176    31.427596    25132.116    35651.641    37161.268 
   40800     292.8158   -5894.0586    30.241681    24990.423    35559.358    36748.919 
   40900    290.19853   -5894.0757    29.971372    24968.795    35569.596    36674.123 
   41000    305.10111   -5893.9643    31.510493    25183.796    35463.213    37301.968 
   41100    301.83975   -5893.8804    31.173664    25168.633    35898.761    36977.319 
   41200    306.20322   -5893.9798    31.624318    25197.286    35727.173    36872.468 
   41300    301.82486   -5894.0225    31.172126    25123.632    35705.857    36993.824 
   41400     307.9795   -5894.0015     31.80777    25198.324    35755.321    37112.216 
   41500     297.1043   -5894.0382    30.684592    25056.313    35931.298    36588.574 
   41600    287.75416   -5893.9797    29.718921      24950.5      36086.5    36396.585 
   41700    306.41281    -5893.842    31.645964    25209.145    36233.034     36818.12 
   41800    310.25985    -5893.701    32.043282    25295.482    36593.192    36503.135 
   41900    295.82053    -5893.654    30.552006    25135.532    36648.901    36278.834 
   42000    306.13239   -5893.5958    31.617003    25272.421    36783.407    36249.544 
   42100    309.26653   -5893.5784    31.940693    25312.694    36858.271    36425.938 
   42200    300.37788   -5893.5637    31.022684    25210.485    36574.557    36204.583 
   42300     294.4695   -5893.5532    30.412473    25131.014    36823.838    36041.374 
   42400    298.86674    -5893.506    30.866615     25182.13    36850.402    36032.043 
   42500    301.40877   -5893.5236    31.129153    25197.126    37112.282    35844.737 
   42600    285.02079   -5893.4929    29.436621    24994.186     36802.03    35480.607 
   42700    292.82359   -5893.4224    30.242486    25094.033    37305.673    35624.844 
   42800    285.40135   -5893.2918    29.475925    25035.242    37148.356    35432.544 
   42900    301.90042   -5893.2338     31.17993    25255.819    37207.661    35858.284 
   43000     312.2399   -5893.1853    32.247779     25382.21    37097.888    36271.826 
   43100    303.23186   -5893.1417     31.31744    25274.177    36935.832    36115.752 
   43200    295.39741   -5893.1454    30.508307    25177.387     36706.68    35942.321 
   43300    302.07685    -5893.158    31.198152    25256.229    37145.192    35854.324 
   43400    293.83401   -5893.1004    30.346841    25169.005    36994.785    35898.392 
   43500    297.93501   -5892.9869    30.770387    25239.183    37432.064    35752.938 
   43600    303.32186   -5892.9076    31.326735    25317.758    37719.846    35463.673 
   43700    298.84867   -5892.8653    30.864749     25269.42    37718.545    35602.804 
   43800    286.93463   -5892.8461    29.634281    25126.565    37484.505    35582.013 
   43900    279.79522    -5892.865     28.89693    25037.371     36993.13    35701.777 
   44000    295.86386   -5892.8812    30.556481    25224.945    37070.977    35989.488 
   44100    299.72823   -5892.9256    30.955589    25269.216    37303.465    35600.717 
   44200    288.91427   -5893.0288    29.838736    25123.745    37211.918    35477.304 
   44300    303.43189   -5893.0826    31.338098    25287.612    37378.394    35672.162 
   44400    305.51785    -5893.023    31.553534    25321.088     37728.08    35567.972 
   44500    302.64531   -5892.9847    31.256861    25293.321    37400.082    35745.254 
   44600    295.77391   -5892.9125    30.547191    25215.505    37035.727    35823.569 
   44700    298.75131   -5892.8903    30.854693    25249.467    36749.514    36223.567 
   44800    305.21395    -5892.925    31.522147    25312.062    37092.174    36248.859 
   44900    302.00094   -5893.0343    31.190312    25235.351    37193.196    36041.369 
   45000    287.46491   -5893.1029    29.689047    25031.962     37196.93     35392.95 
   45100     300.1546   -5893.1511    30.999624    25173.377    37475.433    35307.827 
   45200     309.4422   -5893.2522    31.958837    25257.386    37420.464    35641.991 
   45300    295.83628   -5893.2352    30.553633    25093.718    37214.113    35444.635 
   45400    315.55646   -5893.3114     32.59031     25317.92    37297.631    35945.724 
   45500    284.36544   -5893.3661    29.368937    24927.338    37012.356    35628.135 
   45600    302.38852   -5893.3591     31.23034    25144.231    36605.585    36083.315 
   45700    286.42373   -5893.3324    29.581515    24956.181    36389.987    35957.841 
   45800    305.28804   -5893.1979    31.529799    25221.287      36838.3    36138.101 
   45900    309.52368   -5893.1635    31.967252    25292.502    36908.271    36299.427 
   46000    306.94864   -5893.0993    31.701304    25277.643    36939.046    36254.034 
   46100    308.57643   -5893.0812    31.869421    25291.111    36956.579    36141.712 
   46200    323.90779    -5893.165    33.452826    25453.443    37125.654    36309.265 
   46300    300.82433   -5893.2882    31.068793    25140.911    36929.506    35791.787 
   46400    281.47153   -5893.4208    29.070058    24868.587      36669.9    35509.809 
   46500    293.39969   -5893.4895    30.301984    24993.225    36589.587    35787.389 
   46600    283.87491   -5893.5269    29.318276     24867.59    36282.915    35684.642 
   46700    302.45916   -5893.5271    31.237636    25090.063    36352.207    36210.392 
   46800    296.58646   -5893.5803     30.63111    25018.781    36020.004    36198.278 
   46900      300.852   -5893.5906     31.07165    25065.368    36542.977     36122.02 
   47000    298.39379   -5893.6432    30.817769    25018.516    36731.082    35988.201 
   47100    308.40167    -5893.658    31.851372    25135.188    36757.641    36177.269 
   47200    312.19163   -5893.5985    32.242794    25198.634    36412.108    36475.635 
   47300    299.00724   -5893.5363    30.881126    25046.689     36142.81     36227.32 
   47400    289.94183   -5893.5255     29.94486     24947.07    35882.966    36563.036 
   47500    302.23565   -5893.5434    31.214552    25102.262    36070.745    36826.188 
   47600    307.52383   -5893.4694     31.76071    25200.658    35991.257    36751.082 
   47700    317.56929   -5893.4464    32.798193    25340.966    35986.835    37066.574 
   47800    318.45857   -5893.3032    32.890036    25388.806    36046.518    37166.436 
   47900    311.50334   -5893.1292    32.171709    25343.941    36301.994    37077.337 
   48000    305.25586   -5893.1395    31.526476    25252.284    36094.424    37110.039 
   48100    306.22083   -5893.2029    31.626137    25241.845    36027.646    36918.876 
   48200    307.41178   -5893.1947    31.749137    25260.913    36170.068    36874.213 
   48300    284.37335   -5893.1271    29.369754    24999.396    35743.504     36733.08 
   48400    290.13825   -5893.0464    29.965147    25082.949     35773.83    36862.072 
   48500    308.10728   -5892.9686    31.820968    25314.804    36220.658    36968.345 
   48600    307.58061   -5892.9811    31.766573    25304.132    36120.413    36975.098 
   48700    296.73565   -5892.9998    30.646519    25165.706    36198.481    36926.427 
   48800    291.50737   -5893.0411    30.106548    25085.278    35937.536    36763.216 
   48900     308.5143   -5893.0638    31.863004    25278.911    36170.975     36842.62 
   49000    297.55333   -5893.0903    30.730967    25124.703    35939.881    36774.751 
   49100    292.81295   -5893.0486    30.241387    25068.661    35825.985    36701.361 
   49200    315.13552   -5893.0462    32.546836    25336.493    35908.344    37251.729 
   49300    288.80645   -5892.9993      29.8276    25014.904    35873.132     36534.95 
   49400     291.7089   -5892.9861    30.127361    25047.723    35844.282    36796.308 
   49500    296.01505   -5892.9336    30.572095    25113.668    36026.345    36821.639 
   49600     307.7791   -5892.9189    31.787074    25263.915    36379.141    36738.257 
   49700    310.91739   -5892.9448    32.111192    25298.344    36081.473    37190.527 
   49800    303.55258   -5892.8573    31.350563    25228.067    36112.082    37136.017 
   49900     295.9335   -5892.6954    30.563674    25156.551    36018.555    37174.275 
   50000    280.64305   -5892.5756    28.984494    24993.379    35595.358    37055.803 
   50100     284.2435   -5892.5321    29.356343    25053.414    35812.797    37070.068 
   50200     297.7733   -5892.4698    30.753686    25238.521    35933.827     37199.14 
   50300    283.20607   -5892.4251    29.249199    25077.609    35598.378    37030.482 
   50400    295.30118   -5892.4551    30.498368     25218.92    36027.281    36995.875 
   50500    292.89856   -5892.4528    30.250228     25192.32    36177.787    37028.833 
   50600     288.9144   -5892.5413    29.838749     25133.29    36347.328    36768.605 
   50700    306.84602   -5892.5369    31.690706    25357.453    36523.662    36609.673 
   50800    306.93869   -5892.5665    31.700276    25354.456    36678.597    36554.619 
   50900    311.45065   -5892.5273    32.166267    25414.628    37166.561     36420.43 
   51000    301.79653   -5892.4859    31.169201    25302.774     36994.31    36277.698 
   51100    307.44018   -5892.4972     31.75207      25364.6     37028.24    36424.936 
   51200    302.63288   -5892.4862    31.255578    25309.502    36999.949    36199.749 
   51300    284.18294   -5892.4522    29.350089    25091.029     37074.86    35903.904 
   51400    295.66495   -5892.3728    30.535938    25252.968    37084.444    36045.157 
   51500    302.81312   -5892.4091    31.274192    25331.165    37375.831    36089.935 
   51600    311.70114   -5892.3521    32.192137    25449.462    37417.575    36288.534 
   51700    289.07792   -5892.2878    29.855637    25183.426    37194.449    35841.708 
   51800    299.39211   -5892.2427    30.920875    25303.163    37581.908    35774.517 
   51900    300.35085   -5892.2571    31.019892    25303.031    37754.943    35756.463 
   52000    301.63936   -5892.3536    31.152968    25286.646    37429.956    35787.194 
   52100     304.9021   -5892.4221     31.48994    25308.591    37431.735    35755.511 
   52200    303.13698    -5892.457     31.30764    25284.848    37218.113      35908.5 
   52300    298.40918   -5892.4829    30.819358    25218.318    36831.274    36184.365 
   52400    298.79939   -5892.5011    30.859659    25209.323      36795.6    36431.977 
   52500    301.39304   -5892.5285    31.127529    25220.023    37030.609    36012.995 
   52600    301.64672   -5892.6522    31.153728    25184.459    36794.657    36035.896 
   52700    305.57373   -5892.8077    31.559305    25184.952    36925.454    36104.956 
   52800    303.14496    -5892.981    31.308464    25104.778    36914.312     35719.71 
   52900    310.15536   -5893.0899    32.032491    25161.466    37131.415    35557.628 
   53000    300.79541   -5893.2081    31.065806    25032.145    36817.376    35773.489 
   53100    287.42528   -5893.2861    29.684954    24861.889    36682.624    35409.749 
   53200    294.39092   -5893.3101    30.404358    24939.777    36617.728     35716.23 
   53300    306.92618   -5893.3046    31.698985    25097.731    36930.103    35647.182 
   53400     309.3438   -5893.2533    31.948674    25147.638    36782.272    35990.039 
   53500    303.22784   -5893.2299    31.317025    25084.834    36824.265    35750.232 
   53600    300.96188     -5893.15    31.082998    25067.914    36921.438    35608.086 
   53700      314.011   -5893.0991    32.430697     25227.34    36915.344     35759.74 
   53800    291.00241   -5893.0776    30.054396    24950.442    36985.971    35073.126 
   53900    297.53351   -5893.0228    30.728921     25043.34    36672.916    35750.263 
   54000    302.34822   -5893.0318    31.226179    25094.474    37060.204    35721.309 
   54100    301.04018    -5893.058    31.091085    25066.385    37090.128    35643.586 
   54200    305.01824   -5893.2302    31.501935     25069.77    37084.847    35273.955 
   54300    297.76434   -5893.3166    30.752761    24955.398     36878.12     35465.41 
   54400     301.1007   -5893.2606    31.097336    25005.831    36731.638    35635.427 
   54500    287.53119    -5893.207    29.695892    24842.785    36828.669    35595.307 
   54600    291.83452   -5893.1202    30.140336    24905.646    37150.892     34979.08 
   54700    305.65014   -5893.0616    31.567197    25078.889    37527.701    35069.706 
   54800    304.72855   -5893.0023    31.472016    25075.432     37169.77    35601.788 
   54900    304.15299   -5892.9446    31.412573    25084.111     36752.08     35978.29 
   55000    297.68637   -5892.9252    30.744708    25011.443    36805.775    35497.099 
   55100    293.54022   -5892.9031    30.316498    24960.308    36740.937    35405.568 
   55200    310.10689   -5892.9112    32.027485    25164.248    36690.979     36214.39 
   55300    320.17699   -5892.9121    33.067514    25288.606    36841.171    35903.095 
   55400     298.4489   -5892.8889    30.823461     25027.63    36713.387    35898.644 
   55500     305.5136   -5892.8689    31.553095    25117.808    37414.543    35566.722 
   55600    310.05621   -5892.8475     32.02225    25182.767    37309.032    35826.212 
   55700    311.52547   -5892.7533    32.173994    25230.656    37211.015     35604.19 
   55800     299.7943   -5892.6553    30.962412    25113.427     37091.54    35586.937 
   55900    303.01606    -5892.637    31.295152    25157.313    37254.022    35435.759 
   56000    315.65449   -5892.6731    32.600434    25303.078    37300.124    35609.673 
   56100    295.98504   -5892.7671    30.568996    25037.154    37344.614    35593.214 
   56200    302.36004    -5892.825    31.227399    25099.616    37258.271     35623.55 
   56300    306.13262   -5892.8046    31.617026    25154.297     37085.21     35851.03 
   56400    313.98105   -5892.7285    32.427603    25275.321    37429.907    35856.866 
   56500    308.54936   -5892.6697    31.866625    25225.756    37246.004    35814.387 
   56600    299.27387   -5892.6201    30.908663    25117.649     37373.26    35566.803 
   56700    309.95588   -5892.6197    32.011889    25252.387    37475.082    35641.941 
   56800    318.49218   -5892.5794    32.893508    25367.485    37295.368    35954.053 
   56900    310.38341   -5892.5379    32.056043     25276.91    37494.043    35788.925 
   57000    300.41095   -5892.4404    31.026099    25177.868    37388.435    35451.785 
   57100    298.68912    -5892.369     30.84827    25159.303    37258.123    35556.287 
   57200     302.0345    -5892.397    31.193777    25179.693    37413.166    35749.314 
   57300    297.33587     -5892.49    30.708509    25086.808    36872.451    35752.943 
   57400    311.08511    -5892.576    32.128514    25211.722    36558.615    36203.689 
   57500    315.07336   -5892.6245    32.540416    25229.313    36530.443    36400.495 
   57600    311.54889   -5892.7527    32.176413     25150.33     36441.95    36355.426 
   57700    303.66609   -5892.8193    31.362286    25035.316    36616.273    36114.962 
   57800    296.69522   -5892.8066    30.642343    24945.808    36594.923    36067.415 
   57900    292.12217   -5892.7546    30.170044    24898.071    36442.641    36084.222 
   58000    307.02479   -5892.7271    31.709169    25079.508     36423.62    36279.719 
   58100    290.94684   -5892.7434    30.048657    24875.301    36442.793    35983.081 
   58200      284.234   -5892.8328    29.355362    24769.375    36344.816    35620.281 
   58300    295.73704   -5892.7724    30.543383    24920.013    36731.761     35550.92 
   58400     291.3328   -5892.7492    30.088518    24871.946    36739.526     35669.54 
   58500    299.78421   -5892.7876    30.961371    24967.436    36732.312    35652.315 
   58600    292.15378   -5892.7804    30.173308     24875.84    36749.396    35483.599 
   58700    315.12986    -5892.733    32.546252    25166.878    37062.619    35717.081 
   58800    304.47177   -5892.7364    31.445497    25032.152    36816.993    35463.276 
   58900    293.45116   -5892.7276      30.3073    24901.003    36872.907      35311.1 
   59000    309.28689   -5892.7035    31.942796    25090.433    36989.499    35539.828 
   59100    308.03104   -5892.6029    31.813093     25085.27    37392.771    35423.254 
   59200    300.48001   -5892.5257    31.033232    25000.157    36815.088    35760.569 
   59300    308.50453    -5892.494    31.861995    25098.584    37248.915    35446.296 
   59400    299.21325   -5892.5162    30.902402     24978.28    37152.964    35497.965 
   59500    306.30837    -5892.491    31.635178    25077.267     37135.84    35793.717 
   59600    305.29352   -5892.4514    31.530366    25081.328    37057.783     35543.14 
   59700     300.9015   -5892.4063    31.076762    25043.067    36760.591    35633.841 
   59800    310.18158   -5892.3744    32.035198    25162.612    37088.423     35851.44 
   59900    313.15974   -5892.3082     32.34278    25209.013    37108.296    36003.132 
   60000    295.36739   -5892.2441    30.505206    24991.937    36922.892     35593.91 
   60100    307.16068   -5892.2103    31.723203    25137.561    37088.746    35758.473 
   60200    305.99841   -5892.1781    31.603166    25118.149    37075.715    35931.268 
   60300    302.76528   -5892.1406    31.269252    25078.553      36900.7      36140.2 
   60400    294.37527   -5892.2241    30.402742    24954.718    36672.032    35824.241 
   60500    297.80746   -5892.2935    30.757214    24982.401    36587.835    35829.412 
   60600    294.29593   -5892.2809    30.394547    24947.815    36342.459     36105.13 
   60700    297.04202   -5892.2086    30.678159    25006.104    36679.947     35925.33 
   60800    287.54094   -5892.1681    29.696899    24897.669    36529.261    35876.592 
   60900    296.67787   -5892.1462    30.640551    25016.983    36508.232    36275.439 
   61000    294.50443   -5892.1828    30.416081     24983.92    36314.389    36285.125 
   61100    297.55317   -5892.1538    30.730951    25026.738    36099.773    36694.826 
   61200    300.19145   -5892.1926    31.003429    25049.644    36013.928    36591.989 
   61300    286.47397   -5892.1937    29.586703    24873.336    35830.899    36393.571 
   61400    292.76592   -5892.1449    30.236529    24951.475    36045.457      36614.1 
   61500    279.65969   -5892.1779    28.882933    24773.129    35755.255    36460.386 
   61600    286.84295   -5892.2529    29.624811     24833.46    36324.558    36139.668 
   61700    290.28692   -5892.3091    29.980501    24855.304    36272.747    36187.847 
   61800    303.37941   -5892.2215    31.332679     25028.13    36257.632    36498.512 
   61900    310.19942   -5892.0939    32.037041    25131.642    36061.911    36769.586 
   62000    297.42386   -5892.0691    30.717595    24975.725    36353.107    36421.575 
   62100    307.24951   -5892.1289    31.732377     25084.05    36089.941    36618.655 
   62200    290.06674   -5892.0922    29.957761    24882.321    36168.074    36253.989 
   62300     312.2395   -5892.0009    32.247739    25162.729        36375    36645.878 
   62400    309.67639   -5891.9035    31.983023    25152.808    36496.793    36505.917 
   62500    302.18464   -5891.8548    31.209284     25087.36     36399.56    36563.671 
   62600    301.21377   -5891.8529    31.109013    25089.626    36250.967    36558.567 
   62700    301.67032   -5891.8279    31.156165    25108.523    36708.202    36387.547 
   62800    302.03951   -5891.8226    31.194295    25124.168     36994.48        36152 
   62900    278.30566   -5891.8241     28.74309    24844.651    36475.534    35790.624 
   63000    297.53809   -5891.7901    30.729394    25086.773    36848.162    35907.192 
   63100    308.80493   -5891.7117     31.89302    25236.085     36828.81     36335.34 
   63200     297.9533   -5891.6784    30.772276    25112.856    36426.571    36610.578 
   63300    289.31134   -5891.6679    29.879744    25016.054    36303.067    36227.827 
   63400     296.6572   -5891.7093    30.638416     25098.14    36233.635    36492.284 
   63500    295.70916    -5891.692    30.540504    25092.431    36357.774    36236.419 
   63600    296.20289   -5891.6125    30.591496    25116.785    36789.916    36071.015 
   63700    287.34917   -5891.5615    29.677093    25015.418    36747.978    35897.005 
   63800     292.8931   -5891.6083    30.249664    25076.707    37140.236    35666.137 
   63900    292.41945   -5891.6007    30.200747     25067.75    37469.932    35599.938 
   64000    306.64649   -5891.6117    31.670099    25243.723    37572.513    36004.137 
   64100    294.23138   -5891.5724     30.38788    25109.264    37324.597    35818.246 
   64200    294.02508   -5891.6699    30.366574    25095.439    37234.888    35885.641 
   64300    306.25473   -5891.7722    31.629638    25222.752    36894.542    36189.983 
   64400    306.98015   -5891.8826    31.704558    25196.788    37029.249    35993.798 
   64500    296.69732   -5891.9388     30.64256    25050.148    36523.759    36179.647 
   64600    288.49836   -5891.9121    29.795781    24960.879    36470.874    35877.357 
   64700    297.35796   -5891.8876     30.71079    25075.876    36824.695    36050.596 
   64800    297.76828   -5891.9264    30.753168    25084.242    36819.469    36265.928 
   64900    298.85124   -5891.9237    30.865014    25109.337    36780.258    36041.923 
   65000    305.18703   -5891.9129    31.519367    25192.926     36834.53     36304.05 
   65100    297.32223   -5891.9451      30.7071    25086.254    36509.326    36420.151 
   65200    300.17629    -5892.058    31.001863    25079.639    36247.357    36607.091 
   65300    301.48494   -5892.1824    31.137019    25060.026    36773.073    35894.882 
   65400    314.26686   -5892.2266    32.457122    25194.477    36996.872    35954.366 
   65500    299.71504   -5892.2904    30.954226    24994.347    36891.568    35499.758 
   65600     310.2011   -5892.2878    32.037215    25125.864    37289.183     35376.09 
   65700    299.54395   -5892.2713    30.936556    24998.969     37042.75    35404.064 
   65800    305.71011   -5892.2441     31.57339    25083.803    37263.276    35335.802 
   65900    307.53539   -5892.2177    31.761903     25107.72    36960.309    35777.102 
   66000    301.38847   -5892.1061    31.127056    25055.083    37129.559    35680.077 
   66100    293.40693   -5892.0772    30.302732    24957.834    37061.854    35486.759 
   66200    304.59047   -5892.0887    31.457755    25081.117    37042.158    35744.988 
   66300    313.66344   -5892.0832    32.394801    25177.373    36987.424    36059.997 
   66400    298.04852   -5892.0289    30.782111    24993.342    36887.483    35730.811 
   66500    313.53569   -5891.9747    32.381608    25190.312    37198.148    35731.977 
   66600    313.55619   -5891.8998    32.383724    25197.396    36974.876    35949.507 
   66700    298.11563   -5891.8287    30.789041    25022.222    37079.451    35756.684 
   66800    293.71871    -5891.798    30.334932     24977.21    37161.181    35535.022 
   66900    299.47793   -5891.8176    30.929738    25046.056    37047.461    35602.226 
   67000    311.22271   -5891.7518    32.142726    25205.688    37275.692    35875.137 
   67100    290.39997   -5891.6576    29.992177    24979.829    37196.075    35474.013 
   67200     285.3101   -5891.7176    29.466501    24906.023    37456.126    35197.896 
   67300    287.34826   -5891.7878       29.677    24915.677    36791.595    35344.586 
   67400     306.2721   -5891.8041    31.631433    25152.264    37242.519    35745.901 
   67500    299.69326   -5891.7284    30.951977    25091.941    37316.541    35647.193 
   67600    293.19629   -5891.6788    30.280977    25022.165    37081.005    35680.799 
   67700    309.10367   -5891.6498    31.923874    25226.201    37172.789    35960.168 
   67800    310.70571   -5891.6183     32.08933    25252.786    37122.396    36112.153 
   67900    298.50147   -5891.5958     30.82889    25113.458     37115.15    35709.803 
   68000    292.93971   -5891.5813    30.254478    25061.025    37016.667    35711.522 
   68100    313.46041   -5891.6013    32.373833    25307.752    37151.325    36325.861 
   68200    307.87348   -5891.6654    31.796821    25235.426    36876.607    36282.363 
   68300    304.23568   -5891.6606    31.421113    25187.304    36907.274    36137.664 
   68400     313.6992   -5891.6954    32.398495    25291.827    36837.288    36374.395 
   68500    310.97621   -5891.6927    32.117267    25262.129    36886.494    36480.654 
   68600    288.84352   -5891.6455    29.831429    24997.293    36586.294    36138.492 
   68700    293.07147   -5891.7161    30.268087    25011.251     36298.29    36170.439 
   68800    295.33376   -5891.6974    30.501733     25033.47    36517.793    36314.815 
   68900    309.42605   -5891.5869    31.957169    25220.779    36613.849    36650.183 
   69000    293.53216   -5891.4323    30.315666      25058.4    36529.733    36312.517 
   69100    284.52637   -5891.3612    29.385558    24964.074    36564.512    36169.888 
   69200    281.68063   -5891.3257    29.091653    24929.668    36366.868    36179.324 
   69300    293.50379   -5891.3996    30.312736    25059.148    36700.908     36084.65 
   69400     296.6294   -5891.4341    30.635545    25088.905     36580.14    36015.468 
   69500    306.66118   -5891.4744    31.671616    25206.739    36845.532    36359.909 
   69600       291.88   -5891.4106    30.145032    25039.639    36705.312     36229.05 
   69700    294.86159   -5891.3234    30.452967    25089.824    36834.299    36466.269 
   69800    294.83962   -5891.3575    30.450698    25082.226    36623.546     36443.73 
   69900    290.21598   -5891.3412    29.973175    25032.581    36429.251    36208.284 
   70000    278.11487   -5891.3038    28.723385        24896    36018.507    36502.044 
   70100    310.83033   -5891.2731    32.102201    25305.512     36578.62    36917.682 
   70200     297.1206   -5891.1855    30.686275    25153.522    36511.834    36757.577 
   70300     309.2601   -5891.1426    31.940029    25300.547    36535.305    36791.599 
   70400    309.94984   -5891.1051    32.011265    25312.186    36396.086     36968.31 
   70500     284.9399   -5891.0307    29.428267    25024.811    36433.596    36530.217 
   70600    295.59902    -5890.966    30.529129     25167.37     36490.65    36697.599 
   70700     315.1053   -5890.9278    32.543715    25409.078    36369.324    37656.154 
   70800    299.79358   -5890.8967    30.962338    25216.909    36186.656    37008.849 
   70900    297.24948   -5890.8827    30.699586    25179.046    36556.348    36990.423 
   71000    290.86881   -5890.8296    30.040598    25109.705    36431.901    36982.664 
   71100    290.13204   -5890.7543    29.964505    25116.174    36423.297    37018.445 
   71200    284.45213   -5890.7273    29.377891    25052.081    36347.173    36770.749 
   71300    292.35858    -5890.644     30.19446    25166.675    36612.324     36685.67 
   71400    284.34578   -5890.6641    29.366907    25054.479    36069.337    37042.863 
   71500    289.79267   -5890.6652    29.929455    25111.199    36073.603    37032.028 
   71600    298.64443   -5890.6324    30.843655    25224.471    36211.798    37218.649 
   71700    302.99804   -5890.6457    31.293291    25272.423    36127.583    37571.826 
   71800    313.06169   -5890.6093    32.332654     25402.35    36518.954    37304.441 
   71900    303.66408   -5890.6043    31.362079    25279.462    36131.564    37412.065 
   72000    296.92955   -5890.6682    30.666544    25178.201    36147.958    37222.623 
   72100    312.39003   -5890.7884    32.263285    25333.607    36100.032    37490.711 
   72200    293.42999   -5890.8416    30.305114    25093.156    35925.761    37302.364 
   72300    298.60093   -5890.9545    30.839162     25137.73    35984.547    37199.873 
   72400    288.44881   -5890.9142    29.790663    25027.764    35818.346    37004.522 
   72500    300.23191   -5890.9751    31.007609    25165.996    35820.631    37209.314 
   72600    316.63044   -5891.0105     32.70123    25354.284    36119.907    37639.359 
   72700    301.79232   -5890.9912    31.168766    25168.744    35684.819    37496.886 
   72800    301.03278   -5891.0137    31.090321    25151.761    35479.997    37593.041 
   72900    299.05532   -5890.9784    30.886091    25141.847    35385.821    37784.292 
   73000    305.16761   -5891.0195    31.517361    25212.391    35263.481    38151.109 
   73100    301.50782    -5890.987    31.139382    25184.122    35206.045    37851.916 
   73200    312.84008   -5890.9995    32.309765    25315.215    35499.859    37955.128 
   73300    296.96198   -5890.9095    30.669894    25141.703    35193.093    37963.337 
   73400    285.77925   -5890.9101    29.514954    25000.498    35139.963    37637.198 
   73500    304.57963    -5890.887    31.456636    25229.867    35445.885    37885.275 
   73600    278.49924   -5890.8424    28.763083    24925.961    35201.011    37734.902 
   73700    301.78572   -5890.8125    31.168084    25226.352    35662.848    37594.434 
   73800    299.21982   -5890.8734    30.903081    25187.334     35459.76    37896.923 
   73900    305.45342   -5890.8964     31.54688    25267.404    35846.845    37465.922 
   74000    302.00933   -5890.8026    31.191178    25248.926    35533.258    37923.075 
   74100    309.42513   -5890.7529    31.957074    25333.976    35725.507    37861.515 
   74200    319.00225   -5890.7697    32.946188     25434.34    36096.071    37873.688 
   74300    298.33305   -5890.7758    30.811496    25169.745    35551.406     37922.49 
   74400    293.31218   -5890.7418    30.292947    25103.443    35298.353     37920.42 
   74500    292.30108   -5890.6829    30.188521    25092.197     35092.28     37804.01 
   74600    306.74651    -5890.647    31.680429    25270.401    35603.099    37872.955 
   74700    307.28744   -5890.6159    31.736295    25275.503    35585.093    37841.293 
   74800    307.35174   -5890.6052    31.742936    25272.018    35643.974    37904.976 
   74900     295.5554   -5890.4783    30.524623    25161.357    35724.318    37684.934 
   75000    304.07437   -5890.4285    31.404453    25283.307    35796.005    37833.813 
   75100    311.98477   -5890.3967     32.22143     25384.76    35932.296    37811.647 
   75200    297.60984    -5890.384    30.736804    25214.969    35707.589    37819.629 
   75300    298.89433   -5890.4242    30.869464    25232.422    36174.202    37368.842 
   75400    294.39985   -5890.3991     30.40528     25192.42    36219.414    37315.215 
   75500    280.62899   -5890.4082    28.983041    25036.645     35968.54    37081.977 
   75600    300.22668   -5890.3855    31.007068    25278.542     36183.78    37381.063 
   75700    298.91775   -5890.4063    30.871883    25256.832    36491.236    36926.373 
   75800    312.30972   -5890.4466    32.254991    25409.853     36488.29    37371.105 
   75900     290.1365   -5890.4009    29.964965    25149.099    36136.829    37098.496 
   76000    314.48641   -5890.3422    32.479797    25457.156    36705.941    37325.053 
   76100    318.77913   -5890.2957    32.923144     25527.75    37153.279    37123.622 
   76200    291.42128   -5890.2253    30.097656    25231.527    36826.121    36699.017 
   76300    299.87013   -5890.2066    30.970244    25350.608     37585.74    36427.353 
   76400    306.01615   -5890.2454    31.604998    25421.193    37189.379    36803.632 
   76500    297.81279   -5890.2964    30.757764    25313.254    37402.243     36375.64 
   76600    293.36021   -5890.3244    30.297907    25249.896     37307.46    36219.004 
   76700    305.08619   -5890.3617    31.508953    25369.635    37634.834    35991.025 
   76800    298.97602   -5890.3093    30.877901    25287.131     37438.28    35988.759 
   76900    307.05885   -5890.2438    31.712686    25393.244    37440.664    36291.314 
   77000    298.85233   -5890.1972    30.865127    25313.012    37466.381    36143.365 
   77100    304.39195    -5890.227    31.437252    25379.858    37531.573    36141.579 
   77200    324.79788   -5890.3115    33.544753        25598    37894.049    36211.022 
   77300    304.20623   -5890.3963    31.418071    25318.372    37787.949    35757.646 
   77400    302.34995   -5890.3919    31.226357    25292.466    37624.951    35777.867 
   77500    307.86253   -5890.2771     31.79569    25383.976    37713.231    35757.263 
   77600     292.7581   -5890.1838    30.235721    25225.226    37913.505    35437.137 
   77700    305.36132   -5890.1513    31.537368     25389.67    38006.742    36002.309 
   77800    309.26229   -5890.1524    31.940256    25451.753    38023.389    36254.892 
   77900    287.90661    -5890.156    29.734666    25188.049    38172.711    35577.309 
   78000    299.11507   -5890.1959    30.892262    25304.558    37985.459    35761.249 
   78100    298.51157    -5890.164    30.829933    25301.815     37806.71    35729.515 
   78200    297.35881   -5890.1954    30.710878    25280.236    38234.264    35513.542 
   78300    293.83571   -5890.2556    30.347016    25222.197    37933.799    35636.539 
   78400    301.95291    -5890.337    31.185351    25303.976    37980.432    35658.586 
   78500    308.46629   -5890.3513    31.858046     25383.89     38346.91    35460.932 
   78600    289.75888   -5890.2894    29.925966    25177.217    38004.513    35526.229 
   78700    309.63551   -5890.2468    31.978801    25428.589    38187.269    35851.683 
   78800    301.65921   -5890.1998    31.155018    25332.177    38091.189     35525.53 
   78900     306.6976   -5890.1656    31.675377    25399.945    38184.828    35480.015 
   79000    299.45304   -5890.0705    30.927167    25341.164    37992.399    35573.327 
   79100    293.92624   -5889.9777    30.356365    25295.051    38065.402    35398.094 
   79200    315.69129   -5890.0068    32.604235    25547.572    38627.303    35625.191 
   79300    297.51108   -5890.1355    30.726604    25297.145    38332.997    35454.789 
   79400    307.69082   -5890.2086    31.777956    25413.314    38865.153    35353.408 
   79500    300.39147   -5890.1689    31.024087    25337.935    38614.909    35266.263 
   79600    309.28411   -5890.2229    31.942509    25430.486     38574.89    35393.075 
   79700    296.74644    -5890.336    30.647632    25246.635    37896.647    35704.736 
   79800     297.7865     -5890.39     30.75505    25242.895    38296.352    35332.004 
   79900    297.11078    -5890.408    30.685261    25223.749     37960.98    35764.137 
   80000    299.28259    -5890.401    30.909563    25255.579    37951.676     35838.36 
   80100    297.94256   -5890.4342    30.771167    25229.358    37848.575    35444.678 
   80200    284.81399   -5890.4065    29.415263    25066.403      37770.1    35465.375 
   80300    297.28068   -5890.3745    30.702808    25219.886    37656.895    35908.606 
   80400    307.19759   -5890.3652    31.727016    25356.316    37797.386    35990.131 
   80500    303.19716   -5890.3001    31.313856    25324.494    38042.635    35666.647 
   80600     296.4772   -5890.3256    30.619826    25232.503    37363.815    35948.424 
   80700    301.86736   -5890.3307    31.176515    25292.142    37375.775    36108.939 
   80800    305.07796   -5890.2704    31.508103    25348.098    37393.213    36274.045 
   80900    317.17121   -5890.3396    32.757079    25476.513    37501.154     36427.39 
   81000    299.32627   -5890.3771    30.914075    25247.819     37749.89    35677.705 
   81100    294.10022   -5890.3816    30.374334    25179.394    37343.524    36054.638 
   81200    306.92112   -5890.3473    31.698463    25345.272    37394.559    36299.323 
   81300    287.27151   -5890.3144    29.669073     25112.36    37065.083    36278.702 
   81400    307.31997   -5890.2527    31.739655    25366.543    37140.581    36482.198 
   81500    315.63705   -5890.1915    32.598634    25468.199    37654.863    36562.729 
   81600    304.79291   -5890.1647    31.478663    25332.163    37396.616    36477.061 
   81700    282.13407   -5890.0925    29.138484    25066.793    37129.215    36239.806 
   81800    293.33971   -5890.0389     30.29579    25223.202    36706.784    36605.298 
   81900    311.27996   -5890.0766    32.148638    25432.943    36557.466    37370.645 
   82000    292.67814    -5890.126    30.227464    25198.993    36884.563    36778.713 
   82100     294.4916   -5890.0978    30.414756    25227.629    36727.695    36804.792 
   82200    286.04453   -5890.0203    29.542352    25134.358    36871.216    36569.317 
   82300    286.68682   -5889.9115    29.608687    25166.601    37275.147    36326.438 
   82400    292.38146   -5889.9306    30.196823    25227.204    37104.753     36327.07 
   82500    313.35106   -5889.9824    32.362539    25475.553    37116.756     36757.69 
   82600    299.13618   -5889.9909    30.894443    25296.307    37265.441    36294.526 
   82700    301.30742   -5889.9704    31.118686    25318.129     37060.36    36798.018 
   82800    300.38702   -5889.9418    31.023628    25308.049    37061.747    36653.335 
   82900    297.23917   -5889.8014    30.698521    25311.497    36978.537    36853.111 
   83000    291.56374   -5889.7169    30.112369    25261.616    37074.559    36649.434 
   83100    306.48503   -5889.6584    31.653423    25459.079    37306.378     36606.07 
   83200    307.26222   -5889.5182     31.73369    25496.727    37930.408    36168.741 
   83300    297.07774   -5889.4731    30.681849    25379.187    37778.883    36445.003 
   83400    302.90938    -5889.474    31.284135    25445.177    37809.571    36414.505 
   83500    282.66654   -5889.4939    29.193477    25200.336    37424.236    36144.877 
   83600    300.62523   -5889.4139     31.04823    25442.968    37807.073    36160.551 
   83700     300.0337   -5889.3359    30.987137    25451.247    37544.087     36487.81 
   83800    293.49161   -5889.2054    30.311478    25398.076    37790.292    36332.049 
   83900    295.94062   -5889.1437    30.564409    25434.333    37688.431    36564.044 
   84000     284.0832   -5889.0786    29.339788    25307.301    37619.086    36390.817 
   84100    285.34883   -5889.0554    29.470501     25325.69    37630.167    36402.234 
   84200    291.45612   -5889.0576    30.101254    25395.864    37742.104    36326.118 
   84300    298.57374   -5889.0338    30.836354    25484.979    37677.382    36420.207 
   84400    285.47597   -5889.0507    29.483631    25311.452    37609.174    36156.267 
   84500    294.55654   -5889.0994    30.421463    25397.504    37944.818    36150.845 
   84600    281.21877   -5889.1315    29.043953    25227.517    37312.475    36158.624 
   84700    301.13372   -5889.0385    31.100746    25492.226    37764.054     36353.76 
   84800    300.65073   -5889.0156    31.050864    25488.537    37899.109     36608.28 
   84900    296.81608   -5889.0102    30.654825    25452.687    37838.269    36277.937 
   85000    294.48733   -5889.0429    30.414315    25429.971    37713.511    36373.214 
   85100    296.91722   -5889.0151    30.665271    25471.518    37644.532    36551.739 
   85200     288.7062   -5888.9871    29.817246    25367.305    37358.423    36391.359 
[...]
 3532500     291.0332   -5883.6509    30.057576    20201.491    29314.748    30779.617 
 3532600    309.83028   -5883.6756    31.998917    20419.444    29517.913    30865.469 
 3532700    284.11213   -5883.7015    29.342776    20086.284    29274.859    30532.447 
 3532800     309.3614   -5883.7685    31.950492    20380.936    29673.125    30929.128 
 3532900    295.29011   -5883.8648    30.497225    20198.519    29515.626    30529.614 
 3533000    298.29562   -5883.9274    30.807631    20224.013    29626.076    30685.367 
 3533100    302.87582   -5883.8992    31.280668    20291.111    29796.688    30560.478 
 3533200    306.33783   -5883.8602     31.63822    20345.455    29704.834    30718.589 
 3533300    292.97304   -5883.8612     30.25792    20191.088    29761.326    30421.923 
 3533400    289.48088    -5883.869    29.897254     20155.07    29437.673    30604.018 
 3533500    296.31601   -5883.9343    30.603178     20226.72    29486.496    30463.554 
 3533600    299.40794   -5884.0094    30.922509    20240.285    29583.095     30445.49 
 3533700    296.15743   -5884.0361    30.586801    20205.548    29668.597     30543.22 
 3533800    294.55409   -5883.9889    30.421209    20204.119     29674.74     30147.64 
 3533900    298.91079    -5884.047    30.871164    20246.789    29942.362    30381.712 
 3534000    307.53287   -5884.0838    31.761643    20342.453    29795.208    30586.134 
 3534100    293.55206   -5884.1455    30.317721    20143.761    29638.821    30310.955 
 3534200    315.03752   -5884.1802    32.536714    20383.514    29505.175    30539.378 
 3534300    314.60506   -5884.2209     32.49205    20368.084    29525.936    30648.482 
 3534400    295.41427   -5884.2623    30.510048    20132.539    29357.727    30408.423 
 3534500    299.38588   -5884.3443    30.920232    20178.911    28990.615     30905.78 
 3534600    285.62148   -5884.3753    29.498659    19999.586    28887.754    30723.605 
 3534700    311.36306   -5884.4271     32.15722    20294.209    29493.433    30774.564 
 3534800    324.09223   -5884.5472    33.471874    20422.663    29450.751    30866.406 
 3534900    315.27163   -5884.6392    32.560893    20309.587    29649.908    30500.048 
 3535000    311.65931   -5884.6436    32.187817    20269.734     29766.31    30317.293 
 3535100     300.9625   -5884.6783    31.083063    20130.107    29778.481    29912.526 
 3535200    321.64552   -5884.6883    33.219181    20373.533     30274.04    30095.607 
 3535300    313.77069   -5884.6234    32.405878    20275.909    29995.244    30138.656 
 3535400    302.09834   -5884.5172    31.200371    20150.614    29990.993    29862.214 
 3535500    283.01159   -5884.4798    29.229113      19932.1    29473.606    29868.987 
 3535600    303.04942   -5884.5048    31.298597    20184.474    29683.177    30136.295 
 3535700    279.46586    -5884.448    28.862915    19908.934    29270.085    29968.608 
 3535800    306.29447   -5884.4093    31.633742    20237.351    29659.996    30167.189 
 3535900    284.34374   -5884.4138    29.366696    19965.127     29268.02    30115.279 
 3536000    299.34824   -5884.4271    30.916344    20150.999    29562.066    30246.244 
 3536100    287.26625   -5884.3826     29.66853    20029.815    29492.621    30231.137 
 3536200    310.88753   -5884.4053    32.108108    20315.064    30178.355    30075.586 
 3536300    301.96403    -5884.428    31.186499    20207.288    30156.077    30080.198 
 3536400    292.22925   -5884.4299    30.181103    20086.949    30131.433    29709.304 
 3536500    289.65717   -5884.4672    29.915461    20048.745    29972.211    29778.415 
 3536600    288.55088   -5884.4721    29.801204    20017.609    30453.301    29331.508 
 3536700    301.80474   -5884.5041    31.170048    20158.027    30384.274    29148.218 
 3536800    310.20976   -5884.5986    32.038109    20243.238    30342.202    29399.123 
 3536900    301.02989   -5884.6534    31.090023    20123.887    29894.358    29859.097 
 3537000    311.38233   -5884.5957    32.159211    20265.698    30119.963    29812.353 
 3537100    282.70624     -5884.56    29.197577    19925.712    29867.819    29733.244 
 3537200    306.34372   -5884.4679    31.638829    20225.575    30230.158    29937.948 
 3537300    303.21967   -5884.4676    31.316181    20178.813    30012.876    30111.252 
 3537400    309.46299   -5884.4969    31.960984    20237.774    29587.649    30379.556 
 3537500    304.15173   -5884.5247    31.412442    20150.612    29558.259    30365.913 
 3537600    312.49964   -5884.4902    32.274606    20248.019    29723.375    30138.862 
 3537700    304.45097   -5884.4557    31.443348    20156.122    29649.577    30070.696 
 3537800    300.53006   -5884.3144    31.038401    20130.399    29930.663    30083.061 
 3537900    299.04182   -5884.2056    30.884697     20141.23    29935.374    30060.899 
 3538000    290.23299   -5884.1006    29.974931    20071.332    29876.681    29992.695 
 3538100    312.21088   -5884.0843    32.244782    20339.476    30141.589    30303.489 
 3538200      296.824   -5884.1129    30.655643    20138.735    29943.443    29680.679 
 3538300    303.62952   -5884.0397     31.35851    20239.288    30212.132    29683.922 
 3538400     303.9784     -5884.08    31.394541    20238.177    30281.995     29755.56 
 3538500    313.05127   -5884.0943    32.331577    20349.658    30413.713    29837.275 
 3538600    307.81295   -5884.0535     31.79057    20288.766    30335.937    29755.305 
 3538700    309.97332   -5884.0552     32.01369    20300.236    30542.326    29689.284 
 3538800    302.97833    -5884.043    31.291255    20216.053    30582.426    29744.818 
 3538900    316.28307   -5884.0232    32.665354    20393.227    30740.985    29792.503 
 3539000    283.55863   -5883.9962    29.285611    20011.562    30655.733    29228.169 
 3539100    300.03213   -5884.0219    30.986975    20202.292    30654.999    29293.635 
 3539200    290.59343   -5884.0841    30.012157    20077.508    30700.269    29090.999 
 3539300    298.44068   -5884.0931    30.822612    20157.367    30763.021    29072.847 
 3539400    312.84181   -5884.2023    32.309944    20304.982    31336.003    28859.835 
 3539500    309.91717   -5884.2302    32.007891    20261.355    30934.764    29098.743 
 3539600    294.09692   -5884.2351    30.373993    20058.847    30734.842    28930.416 
 3539700    304.09074    -5884.314    31.406144    20154.835    30962.027    28971.672 
 3539800     299.2717   -5884.2748    30.908439    20101.988    31088.677    28811.153 
 3539900    296.78317   -5884.1986    30.651427    20069.608    30923.754    28736.954 
 3540000    298.16259   -5884.2025    30.793891    20072.993    31045.185    28538.489 
 3540100    302.57119   -5884.2931    31.249206    20100.676    31111.985    28611.935 
 3540200     310.3589   -5884.3073    32.053512    20205.646    31503.546    28684.813 
 3540300    297.01441   -5884.2643    30.675308    20044.594    31306.897    28398.699 
 3540400    292.66869    -5884.318    30.226488    19980.413    31559.103    27720.985 
 3540500    298.31407   -5884.3315    30.809536    20046.078    31230.085    28212.317 
 3540600    319.44114   -5884.2937    32.991516    20319.073    31624.153     28576.71 
 3540700    291.31472   -5884.3187    30.086651    19969.985     31351.23    28077.948 
 3540800     297.6872   -5884.3441    30.744793    20035.282    31282.903    28261.176 
 3540900    306.89385   -5884.4069    31.695646    20131.075    31466.866    28538.568 
 3541000    303.93602   -5884.4388    31.390165    20087.308    31569.279    28149.082 
 3541100    307.17334   -5884.4838    31.724511    20123.248    31917.789     28019.02 
 3541200    315.84762   -5884.5323    32.620381    20225.527    31901.873    27882.523 
 3541300    296.82308   -5884.5463    30.655548    19989.829        31495    27973.026 
 3541400     321.2856   -5884.5837     33.18201    20284.434    31949.595    28163.305 
 3541500    291.52602   -5884.6539    30.108473    19911.869    31075.931    28219.562 
 3541600    279.64728   -5884.7145    28.881651    19756.182    31058.961     27946.81 
 3541700    300.77415   -5884.6981     31.06361    20023.979    31090.608    28290.288 
 3541800    310.03368   -5884.5721    32.019924    20150.351    31768.262    28311.488 
 3541900    317.07561   -5884.4681    32.747207    20241.083    31558.173    28487.155 
 3542000    317.14343   -5884.4269     32.75421    20239.511    31450.933    28635.388 
 3542100    307.59489   -5884.3839    31.768048    20119.644    31120.679    28538.831 
 3542200    307.08942   -5884.5007    31.715844    20084.226    31327.894    28218.797 
 3542300    286.47246   -5884.5352    29.586548    19812.408    31406.487    27800.985 
 3542400    289.68074    -5884.487    29.917895    19852.949    31257.531    27845.831 
 3542500    298.93347    -5884.443    30.873507    19968.682    31496.651    28239.915 
 3542600    300.59617    -5884.488    31.045229    19971.496     30924.79    28690.087 
 3542700    300.35048   -5884.4719    31.019854    19960.334    30978.258    28509.294 
 3542800    288.94302   -5884.4455    29.841704    19824.487    30728.983    28336.443 
 3542900    287.43402   -5884.4163    29.685857    19810.128    30820.376     28156.22 
 3543000      315.279   -5884.3904    32.561654    20150.313    31240.603    28314.959 
 3543100    306.24615   -5884.4056    31.628752    20030.483      31149.2    28128.647 
 3543200    284.93096   -5884.4093    29.427344    19766.276    30754.974    28249.218 
 3543300    302.14733   -5884.4184    31.205431    19981.991    30933.026    28434.794 
 3543400    312.30059   -5884.3474    32.254048    20137.891      31476.6    28587.734 
 3543500    308.68829   -5884.2669    31.880974    20125.982    30650.956    29168.372 
 3543600    297.38334   -5884.2192    30.713411    19999.699    30342.244    29197.726 
 3543700     287.7104   -5884.2702    29.714401    19872.714    30214.064    29185.045 
 3543800    309.35092   -5884.2802    31.949409    20147.614    30892.689    29068.527 
 3543900    286.41969   -5884.3697    29.581098    19862.267     30402.73    28901.339 
 3544000    303.46002   -5884.3769    31.341004    20074.135    30798.729    29180.667 
 3544100    295.25467   -5884.4441    30.493565    19947.511    30522.472    28927.795 
 3544200       296.67   -5884.5027    30.639739    19945.646    30543.955    28936.112 
 3544300    289.89254   -5884.5004     29.93977    19877.332    30516.981    28732.338 
 3544400    315.61074   -5884.5652    32.595916    20190.413    30871.791    29176.979 
 3544500    312.29187   -5884.6142    32.253147    20136.191    30393.967    29381.687 
 3544600    304.39849    -5884.629    31.437928    20041.082    30151.877    29410.555 
 3544700     296.4305   -5884.6661    30.615003    19932.309    29879.509    29346.607 
 3544800    304.58239   -5884.6535     31.45692    20016.088    30122.887    29381.108 
 3544900    297.89424   -5884.6068    30.766176     19938.18    30478.248    28918.609 
 3545000    287.96917   -5884.6418    29.741127    19818.438      30326.9    28711.456 
 3545100    298.75876   -5884.6652    30.855463    19959.975    30191.912    28949.526 
 3545200    295.01554   -5884.6227    30.468867    19927.559    30422.013    28772.222 
 3545300    306.14293   -5884.6385    31.618092    20053.549    30648.745    28860.761 
 3545400    308.51159   -5884.6104    31.862724    20068.579    30601.088    28814.363 
 3545500    308.49417   -5884.6548    31.860925     20057.42     30529.34    29034.603 
 3545600    303.47055   -5884.6443    31.342091    20004.278     30812.87    28643.557 
 3545700    289.07834   -5884.6143    29.855681    19830.244    30266.445    28514.532 
 3545800     286.8026    -5884.584    29.620644    19792.328    30058.919    28735.588 
 3545900    287.17076   -5884.5974    29.658667    19801.208    30245.908    28811.152 
 3546000    304.94244   -5884.6451    31.494106    20010.758    30934.108    28818.742 
 3546100    295.79449   -5884.6781    30.549317     19889.77    30606.668    28535.332 
 3546200     298.2433   -5884.8035    30.802227    19881.455    30660.949     28481.93 
 3546300    289.73707   -5884.7932    29.923713    19774.046    30461.478    28505.839 
 3546400    306.53523   -5884.7646    31.658608    19980.552    30339.784     28785.09 
 3546500    294.50962   -5884.7937    30.416617    19830.296    30263.009     28487.59 
 3546600    293.53018   -5884.8405    30.315461     19823.01    30527.022    28267.918 
 3546700    287.98483   -5884.8711    29.742744    19769.439    30435.242    28543.092 
 3546800    292.55793   -5884.9168    30.215048    19821.388    30337.604    28665.158 
 3546900    293.31972   -5884.9207    30.293725    19825.654    30763.786     28227.76 
 3547000    318.84712    -5884.967    32.930165    20109.692    31177.774    28713.179 
 3547100    302.19669   -5885.0375    31.210528    19877.746     30629.88     28608.87 
 3547200    301.84348   -5885.1003    31.174049    19861.038    30525.422    28276.804 
 3547300     306.1116   -5885.0663    31.614856    19923.934    30594.974    28792.443 
 3547400    307.68459   -5885.0462    31.777312    19939.722    30520.792    28412.382 
 3547500    293.69662   -5885.0214    30.332651    19778.047     30695.12    28108.807 
 3547600    294.14741   -5884.9725    30.379208    19789.135    30703.105     28348.59 
 3547700    283.77457     -5884.96    29.307913    19653.469    30528.261    28146.792 
 3547800    304.57676   -5884.9771    31.456339     19891.02    30654.819    28379.632 
 3547900    295.30769   -5885.0203    30.499041    19765.481    30505.018    28365.321 
 3548000    291.94266   -5885.0702    30.151504    19717.237    30582.465    28288.149 
 3548100    309.21088   -5884.9491    31.934946    19956.882     31038.51    28038.005 
 3548200    285.64593   -5884.8067    29.501185    19708.627    30980.705    28120.082 
 3548300    299.12856   -5884.7304    30.893656    19887.544     30894.98    28377.571 
 3548400    303.14703   -5884.6683    31.308678    19941.444    31317.679    27962.861 
 3548500    312.48262   -5884.6695    32.272848    20060.279    31339.688    28133.561 
 3548600    305.22493   -5884.6734    31.523281    19989.739    31273.287    28235.292 
 3548700    297.67537   -5884.6418    30.743572    19922.284    31443.888    27852.955 
 3548800     287.1298   -5884.6482    29.654437    19794.502    31510.715    27529.658 
 3548900    302.58806   -5884.6556    31.250949    19978.641    31829.385    27729.787 
 3549000      281.977   -5884.6424    29.122262    19724.538    31213.777    27702.577 
 3549100    290.27807   -5884.6416    29.979587    19829.383    31137.425    27936.165 
 3549200    293.29664   -5884.6782    30.291341    19868.332    31250.372    28045.669 
 3549300    296.51257   -5884.6908    30.623479    19911.469    31011.549     28176.61 
 3549400    301.94884    -5884.695     31.18493    19982.747    31063.919    28360.524 
 3549500    300.95745   -5884.7149    31.082541    19974.398    31054.922    28285.819 
 3549600    289.62597   -5884.7447    29.912239    19823.152    30917.532    28475.484 
 3549700     292.3263   -5884.7632    30.191126    19850.104    30612.945     28507.21 
 3549800    293.83517   -5884.7743     30.34696    19869.877    30803.725    28522.315 
 3549900    295.41205   -5884.8165    30.509818     19876.26    30770.264    28548.007 
 3550000    297.46036   -5884.7924    30.721366    19896.262    30749.442    28798.907 
 3550100     291.9508   -5884.7257    30.152345    19856.172    30652.052    28463.391 
 3550200    299.50477   -5884.7298     30.93251     19956.46    30834.295    28535.171 
 3550300    299.05536   -5884.7632    30.886095    19958.479    30631.017    28641.937 
 3550400    306.79473   -5884.7847    31.685408    20055.286    31026.073    28650.644 
 3550500    290.53799   -5884.8353    30.006432    19845.988    30407.534    28573.687 
 3550600    293.42382   -5884.8674    30.304476    19884.482    30908.443    28301.026 
 3550700    318.75761   -5884.8319    32.920922    20201.644    31121.646     28865.69 
 3550800    287.79457   -5884.7036    29.723094    19850.442    30636.182    28580.808 
 3550900    300.70162   -5884.6603    31.056119    20018.144     30906.54    28927.522 
 3551000     305.9883   -5884.6684    31.602122    20073.902    31068.096    28794.445 
 3551100    289.71256   -5884.6242    29.921182    19891.059    30813.739     28504.78 
 3551200    295.47057   -5884.5583    30.515862    19978.959    30981.648    28457.728 
 3551300    301.76276    -5884.502    31.165713    20044.008    31124.801     28650.74 
 3551400    303.03978   -5884.4333    31.297602     20069.67     31000.06    28691.031 
 3551500    300.38875   -5884.4672    31.023806    20043.217    31100.118    28503.888 
 3551600      309.909   -5884.4889    32.007047    20148.093    31463.213    28397.294 
 3551700    299.41788   -5884.5166    30.923536    20009.046    31224.496    28456.437 
 3551800    307.61134   -5884.4946    31.769747    20113.162    31264.522    28625.509 
 3551900    303.47483   -5884.4379    31.342534    20069.465    31135.678    28418.344 
 3552000    317.11162   -5884.4186    32.750925    20229.589    31931.864    27887.021 
 3552100    300.81779   -5884.4478    31.068117    20011.762    31541.655    27686.033 
 3552200    300.33899   -5884.5269    31.018667    19975.846    31210.286    28283.163 
 3552300    282.89687   -5884.5747    29.217265     19745.82    31121.778    27853.704 
 3552400    294.08362   -5884.5523     30.37262     19887.16    30985.632    28062.764 
 3552500    300.56298   -5884.5567    31.041801     19973.06    31159.997    28005.251 
 3552600     295.4342   -5884.5538    30.512106    19932.405    31669.745    27928.321 
 3552700      302.171   -5884.5606    31.207876    20029.423    31376.819    28139.664 
 3552800    292.72119   -5884.5873     30.23191    19915.566    31418.641    27704.794 
 3552900    314.21231   -5884.6367    32.451488    20163.646    31626.958    28071.519 
 3553000    286.60366    -5884.726    29.600098    19802.512    31348.673    27671.336 
 3553100    296.56572   -5884.7879    30.628969    19893.191    31664.741    27718.698 
 3553200    297.12916   -5884.8079     30.68716    19885.114    31543.234    27697.309 
 3553300    296.09847   -5884.7832    30.580711     19877.99    31379.432    27869.141 
 3553400    312.50603   -5884.7547    32.275266    20091.201    31675.059    28094.116 
 3553500    297.74435   -5884.7399    30.750695    19924.197    31474.841    27652.578 
 3553600    305.37782    -5884.746    31.539072    20019.593    31551.486    27941.849 
 3553700    299.32845   -5884.7304      30.9143    19948.801    31619.565    27854.454 
 3553800    290.43289    -5884.647    29.995577    19871.219    31503.867    27714.164 
 3553900    305.86538   -5884.6231    31.589426    20071.882    31530.483    28013.489 
 3554000    291.82933   -5884.5879      30.1398    19920.388    31584.837    27975.488 
 3554100    298.40711   -5884.5766    30.819145    20003.129    31409.204    28158.105 
 3554200    297.55872   -5884.5011    30.731524    20012.495    31532.578    28027.235 
 3554300    296.59522   -5884.5092    30.632015    19998.983    31276.381    28055.638 
 3554400    291.57024   -5884.5056    30.113041    19940.841    31346.384    27760.262 
 3554500    290.72046   -5884.4512    30.025276    19933.192    31658.476    27772.434 
 3554600    302.97727   -5884.4652    31.291145    20052.678    31906.854    27833.183 
 3554700    302.12476   -5884.4297      31.2031    20028.823    32095.684    27632.537 
 3554800    292.14635   -5884.3401    30.172541    19912.189    31921.097    2761