3200
Atoms. Timestep: 0
1 7.22601e-16 1.25158e-15 0
1 1.261 0.728039 0
1 2.522 1.39615e-15 0
1 3.783 0.728039 0
1 5.044 1.45398e-15 0
1 6.305 0.728039 0
1 7.566 6.03073e-16 0
1 8.827 0.728039 0
1 10.088 1.834e-15 0
1 11.349 0.728039 0
1 12.61 1.77617e-15 0
1 13.871 0.728039 0
1 15.132 1.37137e-15 0
1 16.393 0.728039 0
1 17.654 1.3218e-15 0
1 18.915 0.728039 0
1 20.176 1.28876e-15 0
1 21.437 0.728039 0
1 22.698 1.37137e-15 0
1 23.959 0.728039 0
1 25.22 1.33006e-15 0
1 26.481 0.728039 0
1 27.742 1.28876e-15 0
1 29.003 0.728039 0
1 30.264 1.56138e-15 0
1 31.525 0.728039 0
1 32.786 1.15658e-15 0
1 34.047 0.728039 0
1 35.308 2.39577e-16 0
1 36.569 0.728039 0
1 37.83 1.15658e-15 0
1 39.091 0.728039 0
1 40.352 2.56099e-16 0
1 41.613 0.728039 0
1 42.874 1.76791e-15 0
1 44.135 0.728039 0
1 45.396 1.65225e-16 0
1 46.657 0.728039 0
1 47.918 1.23919e-15 0
1 49.179 0.728039 0
1 1.261 2.18412 0
1 2.522 2.91215 0
1 3.783 2.18412 0
1 5.044 2.91215 0
1 6.305 2.18412 0
1 7.566 2.91215 0
1 8.827 2.18412 0
1 10.088 2.91215 0
1 11.349 2.18412 0
1 12.61 2.91215 0
1 13.871 2.18412 0
1 15.132 2.91215 0
1 16.393 2.18412 0
1 17.654 2.91215 0
1 18.915 2.18412 0
1 20.176 2.91215 0
1 21.437 2.18412 0
1 22.698 2.91215 0
1 23.959 2.18412 0
1 25.22 2.91215 0
1 26.481 2.18412 0
1 27.742 2.91215 0
1 29.003 2.18412 0
1 30.264 2.91215 0
1 31.525 2.18412 0
1 32.786 2.91215 0
1 34.047 2.18412 0
1 35.308 2.91215 0
1 36.569 2.18412 0
1 37.83 2.91215 0
1 39.091 2.18412 0
1 40.352 2.91215 0
1 41.613 2.18412 0
1 42.874 2.91215 0
1 44.135 2.18412 0
1 45.396 2.91215 0
1 46.657 2.18412 0
1 47.918 2.91215 0
1 49.179 2.18412 0
1 50.44 2.91215 0
1 2.522 4.36823 0
1 3.783 5.09627 0
1 5.044 4.36823 0
1 6.305 5.09627 0
1 7.566 4.36823 0
1 8.827 5.09627 0
1 10.088 4.36823 0
1 11.349 5.09627 0
1 12.61 4.36823 0
1 13.871 5.09627 0
1 15.132 4.36823 0
1 16.393 5.09627 0
1 17.654 4.36823 0
1 18.915 5.09627 0
1 20.176 4.36823 0
1 21.437 5.09627 0
1 22.698 4.36823 0
1 23.959 5.09627 0
1 25.22 4.36823 0
1 26.481 5.09627 0
1 27.742 4.36823 0
1 29.003 5.09627 0
1 30.264 4.36823 0
1 31.525 5.09627 0
1 32.786 4.36823 0
1 34.047 5.09627 0
1 35.308 4.36823 0
1 36.569 5.09627 0
1 37.83 4.36823 0
1 39.091 5.09627 0
1 40.352 4.36823 0
1 41.613 5.09627 0
1 42.874 4.36823 0
1 44.135 5.09627 0
1 45.396 4.36823 0
1 46.657 5.09627 0
1 47.918 4.36823 0
1 49.179 5.09627 0
1 50.44 4.36823 0
1 51.701 5.09627 0
1 3.783 6.55235 0
1 5.044 7.28039 0
1 6.305 6.55235 0
1 7.566 7.28039 0
1 8.827 6.55235 0
1 10.088 7.28039 0
1 11.349 6.55235 0
1 12.61 7.28039 0
1 13.871 6.55235 0
1 15.132 7.28039 0
1 16.393 6.55235 0
1 17.654 7.28039 0
1 18.915 6.55235 0
1 20.176 7.28039 0
1 21.437 6.55235 0
1 22.698 7.28039 0
1 23.959 6.55235 0
1 25.22 7.28039 0
1 26.481 6.55235 0
1 27.742 7.28039 0
1 29.003 6.55235 0
1 30.264 7.28039 0
1 31.525 6.55235 0
1 32.786 7.28039 0
1 34.047 6.55235 0
1 35.308 7.28039 0
1 36.569 6.55235 0
1 37.83 7.28039 0
1 39.091 6.55235 0
1 40.352 7.28039 0
1 41.613 6.55235 0
1 42.874 7.28039 0
1 44.135 6.55235 0
1 45.396 7.28039 0
1 46.657 6.55235 0
1 47.918 7.28039 0
1 49.179 6.55235 0
1 50.44 7.28039 0
1 51.701 6.55235 0
1 52.962 7.28039 0
1 5.044 8.73646 0
1 6.305 9.4645 0
1 7.566 8.73646 0
1 8.827 9.4645 0
1 10.088 8.73646 0
1 11.349 9.4645 0
1 12.61 8.73646 0
1 13.871 9.4645 0
1 15.132 8.73646 0
1 16.393 9.4645 0
1 17.654 8.73646 0
1 18.915 9.4645 0
1 20.176 8.73646 0
1 21.437 9.4645 0
1 22.698 8.73646 0
1 23.959 9.4645 0
1 25.22 8.73646 0
1 26.481 9.4645 0
1 27.742 8.73646 0
1 29.003 9.4645 0
1 30.264 8.73646 0
1 31.525 9.4645 0
1 32.786 8.73646 0
1 34.047 9.4645 0
1 35.308 8.73646 0
1 36.569 9.4645 0
1 37.83 8.73646 0
1 39.091 9.4645 0
1 40.352 8.73646 0
1 41.613 9.4645 0
1 42.874 8.73646 0
1 44.135 9.4645 0
1 45.396 8.73646 0
1 46.657 9.4645 0
1 47.918 8.73646 0
1 49.179 9.4645 0
1 50.44 8.73646 0
1 51.701 9.4645 0
1 52.962 8.73646 0
1 54.223 9.4645 0
1 6.305 10.9206 0
1 7.566 11.6486 0
1 8.827 10.9206 0
1 10.088 11.6486 0
1 11.349 10.9206 0
1 12.61 11.6486 0
1 13.871 10.9206 0
1 15.132 11.6486 0
1 16.393 10.9206 0
1 17.654 11.6486 0
1 18.915 10.9206 0
1 20.176 11.6486 0
1 21.437 10.9206 0
1 22.698 11.6486 0
1 23.959 10.9206 0
1 25.22 11.6486 0
1 26.481 10.9206 0
1 27.742 11.6486 0
1 29.003 10.9206 0
1 30.264 11.6486 0
1 31.525 10.9206 0
1 32.786 11.6486 0
1 34.047 10.9206 0
1 35.308 11.6486 0
1 36.569 10.9206 0
1 37.83 11.6486 0
1 39.091 10.9206 0
1 40.352 11.6486 0
1 41.613 10.9206 0
1 42.874 11.6486 0
1 44.135 10.9206 0
1 45.396 11.6486 0
1 46.657 10.9206 0
1 47.918 11.6486 0
1 49.179 10.9206 0
1 50.44 11.6486 0
1 51.701 10.9206 0
1 52.962 11.6486 0
1 54.223 10.9206 0
1 55.484 11.6486 0
1 7.566 13.1047 0
1 8.827 13.8327 0
1 10.088 13.1047 0
1 11.349 13.8327 0
1 12.61 13.1047 0
1 13.871 13.8327 0
1 15.132 13.1047 0
1 16.393 13.8327 0
1 17.654 13.1047 0
1 18.915 13.8327 0
1 20.176 13.1047 0
1 21.437 13.8327 0
1 22.698 13.1047 0
1 23.959 13.8327 0
1 25.22 13.1047 0
1 26.481 13.8327 0
1 27.742 13.1047 0
1 29.003 13.8327 0
1 30.264 13.1047 0
1 31.525 13.8327 0
1 32.786 13.1047 0
1 34.047 13.8327 0
1 35.308 13.1047 0
1 36.569 13.8327 0
1 37.83 13.1047 0
1 39.091 13.8327 0
1 40.352 13.1047 0
1 41.613 13.8327 0
1 42.874 13.1047 0
1 44.135 13.8327 0
1 45.396 13.1047 0
1 46.657 13.8327 0
1 47.918 13.1047 0
1 49.179 13.8327 0
1 50.44 13.1047 0
1 51.701 13.8327 0
1 52.962 13.1047 0
1 54.223 13.8327 0
1 55.484 13.1047 0
1 56.745 13.8327 0
1 8.827 15.2888 0
1 10.088 16.0169 0
1 11.349 15.2888 0
1 12.61 16.0169 0
1 13.871 15.2888 0
1 15.132 16.0169 0
1 16.393 15.2888 0
1 17.654 16.0169 0
1 18.915 15.2888 0
1 20.176 16.0169 0
1 21.437 15.2888 0
1 22.698 16.0169 0
1 23.959 15.2888 0
1 25.22 16.0169 0
1 26.481 15.2888 0
1 27.742 16.0169 0
1 29.003 15.2888 0
1 30.264 16.0169 0
1 31.525 15.2888 0
1 32.786 16.0169 0
1 34.047 15.2888 0
1 35.308 16.0169 0
1 36.569 15.2888 0
1 37.83 16.0169 0
1 39.091 15.2888 0
1 40.352 16.0169 0
1 41.613 15.2888 0
1 42.874 16.0169 0
1 44.135 15.2888 0
1 45.396 16.0169 0
1 46.657 15.2888 0
1 47.918 16.0169 0
1 49.179 15.2888 0
1 50.44 16.0169 0
1 51.701 15.2888 0
1 52.962 16.0169 0
1 54.223 15.2888 0
1 55.484 16.0169 0
1 56.745 15.2888 0
1 58.006 16.0169 0
1 10.088 17.4729 0
1 11.349 18.201 0
1 12.61 17.4729 0
1 13.871 18.201 0
1 15.132 17.4729 0
1 16.393 18.201 0
1 17.654 17.4729 0
1 18.915 18.201 0
1 20.176 17.4729 0
1 21.437 18.201 0
1 22.698 17.4729 0
1 23.959 18.201 0
1 25.22 17.4729 0
1 26.481 18.201 0
1 27.742 17.4729 0
1 29.003 18.201 0
1 30.264 17.4729 0
1 31.525 18.201 0
1 32.786 17.4729 0
1 34.047 18.201 0
1 35.308 17.4729 0
1 36.569 18.201 0
1 37.83 17.4729 0
1 39.091 18.201 0
1 40.352 17.4729 0
1 41.613 18.201 0
1 42.874 17.4729 0
1 44.135 18.201 0
1 45.396 17.4729 0
1 46.657 18.201 0
1 47.918 17.4729 0
1 49.179 18.201 0
1 50.44 17.4729 0
1 51.701 18.201 0
1 52.962 17.4729 0
1 54.223 18.201 0
1 55.484 17.4729 0
1 56.745 18.201 0
1 58.006 17.4729 0
1 59.267 18.201 0
1 11.349 19.657 0
1 12.61 20.3851 0
1 13.871 19.657 0
1 15.132 20.3851 0
1 16.393 19.657 0
1 17.654 20.3851 0
1 18.915 19.657 0
1 20.176 20.3851 0
1 21.437 19.657 0
1 22.698 20.3851 0
1 23.959 19.657 0
1 25.22 20.3851 0
1 26.481 19.657 0
1 27.742 20.3851 0
1 29.003 19.657 0
1 30.264 20.3851 0
1 31.525 19.657 0
1 32.786 20.3851 0
1 34.047 19.657 0
1 35.308 20.3851 0
1 36.569 19.657 0
1 37.83 20.3851 0
1 39.091 19.657 0
1 40.352 20.3851 0
1 41.613 19.657 0
1 42.874 20.3851 0
1 44.135 19.657 0
1 45.396 20.3851 0
1 46.657 19.657 0
1 47.918 20.3851 0
1 49.179 19.657 0
1 50.44 20.3851 0
1 51.701 19.657 0
1 52.962 20.3851 0
1 54.223 19.657 0
1 55.484 20.3851 0
1 56.745 19.657 0
1 58.006 20.3851 0
1 59.267 19.657 0
1 60.528 20.3851 0
1 12.61 21.8412 0
1 13.871 22.5692 0
1 15.132 21.8412 0
1 16.393 22.5692 0
1 17.654 21.8412 0
1 18.915 22.5692 0
1 20.176 21.8412 0
1 21.437 22.5692 0
1 22.698 21.8412 0
1 23.959 22.5692 0
1 25.22 21.8412 0
1 26.481 22.5692 0
1 27.742 21.8412 0
1 29.003 22.5692 0
1 30.264 21.8412 0
1 31.525 22.5692 0
1 32.786 21.8412 0
1 34.047 22.5692 0
1 35.308 21.8412 0
1 36.569 22.5692 0
1 37.83 21.8412 0
1 39.091 22.5692 0
1 40.352 21.8412 0
1 41.613 22.5692 0
1 42.874 21.8412 0
1 44.135 22.5692 0
1 45.396 21.8412 0
1 46.657 22.5692 0
1 47.918 21.8412 0
1 49.179 22.5692 0
1 50.44 21.8412 0
1 51.701 22.5692 0
1 52.962 21.8412 0
1 54.223 22.5692 0
1 55.484 21.8412 0
1 56.745 22.5692 0
1 58.006 21.8412 0
1 59.267 22.5692 0
1 60.528 21.8412 0
1 61.789 22.5692 0
1 13.871 24.0253 0
1 15.132 24.7533 0
1 16.393 24.0253 0
1 17.654 24.7533 0
1 18.915 24.0253 0
1 20.176 24.7533 0
1 21.437 24.0253 0
1 22.698 24.7533 0
1 23.959 24.0253 0
1 25.22 24.7533 0
1 26.481 24.0253 0
1 27.742 24.7533 0
1 29.003 24.0253 0
1 30.264 24.7533 0
1 31.525 24.0253 0
1 32.786 24.7533 0
1 34.047 24.0253 0
1 35.308 24.7533 0
1 36.569 24.0253 0
1 37.83 24.7533 0
1 39.091 24.0253 0
1 40.352 24.7533 0
1 41.613 24.0253 0
1 42.874 24.7533 0
1 44.135 24.0253 0
1 45.396 24.7533 0
1 46.657 24.0253 0
1 47.918 24.7533 0
1 49.179 24.0253 0
1 50.44 24.7533 0
1 51.701 24.0253 0
1 52.962 24.7533 0
1 54.223 24.0253 0
1 55.484 24.7533 0
1 56.745 24.0253 0
1 58.006 24.7533 0
1 59.267 24.0253 0
1 60.528 24.7533 0
1 61.789 24.0253 0
1 63.05 24.7533 0
1 15.132 26.2094 0
1 16.393 26.9374 0
1 17.654 26.2094 0
1 18.915 26.9374 0
1 20.176 26.2094 0
1 21.437 26.9374 0
1 22.698 26.2094 0
1 23.959 26.9374 0
1 25.22 26.2094 0
1 26.481 26.9374 0
1 27.742 26.2094 0
1 29.003 26.9374 0
1 30.264 26.2094 0
1 31.525 26.9374 0
1 32.786 26.2094 0
1 34.047 26.9374 0
1 35.308 26.2094 0
1 36.569 26.9374 0
1 37.83 26.2094 0
1 39.091 26.9374 0
1 40.352 26.2094 0
1 41.613 26.9374 0
1 42.874 26.2094 0
1 44.135 26.9374 0
1 45.396 26.2094 0
1 46.657 26.9374 0
1 47.918 26.2094 0
1 49.179 26.9374 0
1 50.44 26.2094 0
1 51.701 26.9374 0
1 52.962 26.2094 0
1 54.223 26.9374 0
1 55.484 26.2094 0
1 56.745 26.9374 0
1 58.006 26.2094 0
1 59.267 26.9374 0
1 60.528 26.2094 0
1 61.789 26.9374 0
1 63.05 26.2094 0
1 64.311 26.9374 0
1 16.393 28.3935 0
1 17.654 29.1215 0
1 18.915 28.3935 0
1 20.176 29.1215 0
1 21.437 28.3935 0
1 22.698 29.1215 0
1 23.959 28.3935 0
1 25.22 29.1215 0
1 26.481 28.3935 0
1 27.742 29.1215 0
1 29.003 28.3935 0
1 30.264 29.1215 0
1 31.525 28.3935 0
1 32.786 29.1215 0
1 34.047 28.3935 0
1 35.308 29.1215 0
1 36.569 28.3935 0
1 37.83 29.1215 0
1 39.091 28.3935 0
1 40.352 29.1215 0
1 41.613 28.3935 0
1 42.874 29.1215 0
1 44.135 28.3935 0
1 45.396 29.1215 0
1 46.657 28.3935 0
1 47.918 29.1215 0
1 49.179 28.3935 0
1 50.44 29.1215 0
1 51.701 28.3935 0
1 52.962 29.1215 0
1 54.223 28.3935 0
1 55.484 29.1215 0
1 56.745 28.3935 0
1 58.006 29.1215 0
1 59.267 28.3935 0
1 60.528 29.1215 0
1 61.789 28.3935 0
1 63.05 29.1215 0
1 64.311 28.3935 0
1 65.572 29.1215 0
1 17.654 30.5776 0
1 18.915 31.3057 0
1 20.176 30.5776 0
1 21.437 31.3057 0
1 22.698 30.5776 0
1 23.959 31.3057 0
1 25.22 30.5776 0
1 26.481 31.3057 0
1 27.742 30.5776 0
1 29.003 31.3057 0
1 30.264 30.5776 0
1 31.525 31.3057 0
1 32.786 30.5776 0
1 34.047 31.3057 0
1 35.308 30.5776 0
1 36.569 31.3057 0
1 37.83 30.5776 0
1 39.091 31.3057 0
1 40.352 30.5776 0
1 41.613 31.3057 0
1 42.874 30.5776 0
1 44.135 31.3057 0
1 45.396 30.5776 0
1 46.657 31.3057 0
1 47.918 30.5776 0
1 49.179 31.3057 0
1 50.44 30.5776 0
1 51.701 31.3057 0
1 52.962 30.5776 0
1 54.223 31.3057 0
1 55.484 30.5776 0
1 56.745 31.3057 0
1 58.006 30.5776 0
1 59.267 31.3057 0
1 60.528 30.5776 0
1 61.789 31.3057 0
1 63.05 30.5776 0
1 64.311 31.3057 0
1 65.572 30.5776 0
1 66.833 31.3057 0
1 18.915 32.7617 0
1 20.176 33.4898 0
1 21.437 32.7617 0
1 22.698 33.4898 0
1 23.959 32.7617 0
1 25.22 33.4898 0
1 26.481 32.7617 0
1 27.742 33.4898 0
1 29.003 32.7617 0
1 30.264 33.4898 0
1 31.525 32.7617 0
1 32.786 33.4898 0
1 34.047 32.7617 0
1 35.308 33.4898 0
1 36.569 32.7617 0
1 37.83 33.4898 0
1 39.091 32.7617 0
1 40.352 33.4898 0
1 41.613 32.7617 0
1 42.874 33.4898 0
1 44.135 32.7617 0
1 45.396 33.4898 0
1 46.657 32.7617 0
1 47.918 33.4898 0
1 49.179 32.7617 0
1 50.44 33.4898 0
1 51.701 32.7617 0
1 52.962 33.4898 0
1 54.223 32.7617 0
1 55.484 33.4898 0
1 56.745 32.7617 0
1 58.006 33.4898 0
1 59.267 32.7617 0
1 60.528 33.4898 0
1 61.789 32.7617 0
1 63.05 33.4898 0
1 64.311 32.7617 0
1 65.572 33.4898 0
1 66.833 32.7617 0
1 68.094 33.4898 0
1 20.176 34.9459 0
1 21.437 35.6739 0
1 22.698 34.9459 0
1 23.959 35.6739 0
1 25.22 34.9459 0
1 26.481 35.6739 0
1 27.742 34.9459 0
1 29.003 35.6739 0
1 30.264 34.9459 0
1 31.525 35.6739 0
1 32.786 34.9459 0
1 34.047 35.6739 0
1 35.308 34.9459 0
1 36.569 35.6739 0
1 37.83 34.9459 0
1 39.091 35.6739 0
1 40.352 34.9459 0
1 41.613 35.6739 0
1 42.874 34.9459 0
1 44.135 35.6739 0
1 45.396 34.9459 0
1 46.657 35.6739 0
1 47.918 34.9459 0
1 49.179 35.6739 0
1 50.44 34.9459 0
1 51.701 35.6739 0
1 52.962 34.9459 0
1 54.223 35.6739 0
1 55.484 34.9459 0
1 56.745 35.6739 0
1 58.006 34.9459 0
1 59.267 35.6739 0
1 60.528 34.9459 0
1 61.789 35.6739 0
1 63.05 34.9459 0
1 64.311 35.6739 0
1 65.572 34.9459 0
1 66.833 35.6739 0
1 68.094 34.9459 0
1 69.355 35.6739 0
1 21.437 37.13 0
1 22.698 37.858 0
1 23.959 37.13 0
1 25.22 37.858 0
1 26.481 37.13 0
1 27.742 37.858 0
1 29.003 37.13 0
1 30.264 37.858 0
1 31.525 37.13 0
1 32.786 37.858 0
1 34.047 37.13 0
1 35.308 37.858 0
1 36.569 37.13 0
1 37.83 37.858 0
1 39.091 37.13 0
1 40.352 37.858 0
1 41.613 37.13 0
1 42.874 37.858 0
1 44.135 37.13 0
1 45.396 37.858 0
1 46.657 37.13 0
1 47.918 37.858 0
1 49.179 37.13 0
1 50.44 37.858 0
1 51.701 37.13 0
1 52.962 37.858 0
1 54.223 37.13 0
1 55.484 37.858 0
1 56.745 37.13 0
1 58.006 37.858 0
1 59.267 37.13 0
1 60.528 37.858 0
1 61.789 37.13 0
1 63.05 37.858 0
1 64.311 37.13 0
1 65.572 37.858 0
1 66.833 37.13 0
1 68.094 37.858 0
1 69.355 37.13 0
1 70.616 37.858 0
1 22.698 39.3141 0
1 23.959 40.0421 0
1 25.22 39.3141 0
1 26.481 40.0421 0
1 27.742 39.3141 0
1 29.003 40.0421 0
1 30.264 39.3141 0
1 31.525 40.0421 0
1 32.786 39.3141 0
1 34.047 40.0421 0
1 35.308 39.3141 0
1 36.569 40.0421 0
1 37.83 39.3141 0
1 39.091 40.0421 0
1 40.352 39.3141 0
1 41.613 40.0421 0
1 42.874 39.3141 0
1 44.135 40.0421 0
1 45.396 39.3141 0
1 46.657 40.0421 0
1 47.918 39.3141 0
1 49.179 40.0421 0
1 50.44 39.3141 0
1 51.701 40.0421 0
1 52.962 39.3141 0
1 54.223 40.0421 0
1 55.484 39.3141 0
1 56.745 40.0421 0
1 58.006 39.3141 0
1 59.267 40.0421 0
1 60.528 39.3141 0
1 61.789 40.0421 0
1 63.05 39.3141 0
1 64.311 40.0421 0
1 65.572 39.3141 0
1 66.833 40.0421 0
1 68.094 39.3141 0
1 69.355 40.0421 0
1 70.616 39.3141 0
1 71.877 40.0421 0
1 23.959 41.4982 0
1 25.22 42.2262 0
1 26.481 41.4982 0
1 27.742 42.2262 0
1 29.003 41.4982 0
1 30.264 42.2262 0
1 31.525 41.4982 0
1 32.786 42.2262 0
1 34.047 41.4982 0
1 35.308 42.2262 0
1 36.569 41.4982 0
1 37.83 42.2262 0
1 39.091 41.4982 0
1 40.352 42.2262 0
1 41.613 41.4982 0
1 42.874 42.2262 0
1 44.135 41.4982 0
1 45.396 42.2262 0
1 46.657 41.4982 0
1 47.918 42.2262 0
1 49.179 41.4982 0
1 50.44 42.2262 0
1 51.701 41.4982 0
1 52.962 42.2262 0
1 54.223 41.4982 0
1 55.484 42.2262 0
1 56.745 41.4982 0
1 58.006 42.2262 0
1 59.267 41.4982 0
1 60.528 42.2262 0
1 61.789 41.4982 0
1 63.05 42.2262 0
1 64.311 41.4982 0
1 65.572 42.2262 0
1 66.833 41.4982 0
1 68.094 42.2262 0
1 69.355 41.4982 0
1 70.616 42.2262 0
1 71.877 41.4982 0
1 73.138 42.2262 0
1 50.44 0 0
1 51.701 0.728039 0
1 52.962 1.48703e-15 0
1 54.223 0.728039 0
1 55.484 1.29702e-15 0
1 56.745 0.728039 0
1 58.006 1.09049e-15 0
1 59.267 0.728039 0
1 60.528 2.13141e-15 0
1 61.789 0.728039 0
1 63.05 1.08223e-15 0
1 64.311 0.728039 0
1 65.572 8.42649e-16 0
1 66.833 0.728039 0
1 68.094 2.13141e-15 0
1 69.355 0.728039 0
1 70.616 1.45398e-15 0
1 71.877 0.728039 0
1 73.138 1.14832e-15 0
1 74.399 0.728039 0
1 75.66 5.12199e-16 0
1 76.921 0.728039 0
1 78.182 1.94966e-15 0
1 79.443 0.728039 0
1 80.704 1.58616e-15 0
1 81.965 0.728039 0
1 83.226 1.73487e-15 0
1 84.487 0.728039 0
1 85.748 0 0
1 87.009 0.728039 0
1 88.27 2.61056e-15 0
1 89.531 0.728039 0
1 90.792 0 0
1 92.053 0.728039 0
1 93.314 2.08184e-15 0
1 94.575 0.728039 0
1 95.836 2.23054e-15 0
1 97.097 0.728039 0
1 98.358 8.17866e-16 0
1 99.619 0.728039 0
1 51.701 2.18412 0
1 52.962 2.91215 0
1 54.223 2.18412 0
1 55.484 2.91215 0
1 56.745 2.18412 0
1 58.006 2.91215 0
1 59.267 2.18412 0
1 60.528 2.91215 0
1 61.789 2.18412 0
1 63.05 2.91215 0
1 64.311 2.18412 0
1 65.572 2.91215 0
1 66.833 2.18412 0
1 68.094 2.91215 0
1 69.355 2.18412 0
1 70.616 2.91215 0
1 71.877 2.18412 0
1 73.138 2.91215 0
1 74.399 2.18412 0
1 75.66 2.91215 0
1 76.921 2.18412 0
1 78.182 2.91215 0
1 79.443 2.18412 0
1 80.704 2.91215 0
1 81.965 2.18412 0
1 83.226 2.91215 0
1 84.487 2.18412 0
1 85.748 2.91215 0
1 87.009 2.18412 0
1 88.27 2.91215 0
1 89.531 2.18412 0
1 90.792 2.91215 0
1 92.053 2.18412 0
1 93.314 2.91215 0
1 94.575 2.18412 0
1 95.836 2.91215 0
1 97.097 2.18412 0
1 98.358 2.91215 0
1 99.619 2.18412 0
1 100.88 2.91215 0
1 52.962 4.36823 0
1 54.223 5.09627 0
1 55.484 4.36823 0
1 56.745 5.09627 0
1 58.006 4.36823 0
1 59.267 5.09627 0
1 60.528 4.36823 0
1 61.789 5.09627 0
1 63.05 4.36823 0
1 64.311 5.09627 0
1 65.572 4.36823 0
1 66.833 5.09627 0
1 68.094 4.36823 0
1 69.355 5.09627 0
1 70.616 4.36823 0
1 71.877 5.09627 0
1 73.138 4.36823 0
1 74.399 5.09627 0
1 75.66 4.36823 0
1 76.921 5.09627 0
1 78.182 4.36823 0
1 79.443 5.09627 0
1 80.704 4.36823 0
1 81.965 5.09627 0
1 83.226 4.36823 0
1 84.487 5.09627 0
1 85.748 4.36823 0
1 87.009 5.09627 0
1 88.27 4.36823 0
1 89.531 5.09627 0
1 90.792 4.36823 0
1 92.053 5.09627 0
1 93.314 4.36823 0
1 94.575 5.09627 0
1 95.836 4.36823 0
1 97.097 5.09627 0
1 98.358 4.36823 0
1 99.619 5.09627 0
1 100.88 4.36823 0
1 102.141 5.09627 0
1 54.223 6.55235 0
1 55.484 7.28039 0
1 56.745 6.55235 0
1 58.006 7.28039 0
1 59.267 6.55235 0
1 60.528 7.28039 0
1 61.789 6.55235 0
1 63.05 7.28039 0
1 64.311 6.55235 0
1 65.572 7.28039 0
1 66.833 6.55235 0
1 68.094 7.28039 0
1 69.355 6.55235 0
1 70.616 7.28039 0
1 71.877 6.55235 0
1 73.138 7.28039 0
1 74.399 6.55235 0
1 75.66 7.28039 0
1 76.921 6.55235 0
1 78.182 7.28039 0
1 79.443 6.55235 0
1 80.704 7.28039 0
1 81.965 6.55235 0
1 83.226 7.28039 0
1 84.487 6.55235 0
1 85.748 7.28039 0
1 87.009 6.55235 0
1 88.27 7.28039 0
1 89.531 6.55235 0
1 90.792 7.28039 0
1 92.053 6.55235 0
1 93.314 7.28039 0
1 94.575 6.55235 0
1 95.836 7.28039 0
1 97.097 6.55235 0
1 98.358 7.28039 0
1 99.619 6.55235 0
1 100.88 7.28039 0
1 102.141 6.55235 0
1 103.402 7.28039 0
1 55.484 8.73646 0
1 56.745 9.4645 0
1 58.006 8.73646 0
1 59.267 9.4645 0
1 60.528 8.73646 0
1 61.789 9.4645 0
1 63.05 8.73646 0
1 64.311 9.4645 0
1 65.572 8.73646 0
1 66.833 9.4645 0
1 68.094 8.73646 0
1 69.355 9.4645 0
1 70.616 8.73646 0
1 71.877 9.4645 0
1 73.138 8.73646 0
1 74.399 9.4645 0
1 75.66 8.73646 0
1 76.921 9.4645 0
1 78.182 8.73646 0
1 79.443 9.4645 0
1 80.704 8.73646 0
1 81.965 9.4645 0
1 83.226 8.73646 0
1 84.487 9.4645 0
1 85.748 8.73646 0
1 87.009 9.4645 0
1 88.27 8.73646 0
1 89.531 9.4645 0
1 90.792 8.73646 0
1 92.053 9.4645 0
1 93.314 8.73646 0
1 94.575 9.4645 0
1 95.836 8.73646 0
1 97.097 9.4645 0
1 98.358 8.73646 0
1 99.619 9.4645 0
1 100.88 8.73646 0
1 102.141 9.4645 0
1 103.402 8.73646 0
1 104.663 9.4645 0
1 56.745 10.9206 0
1 58.006 11.6486 0
1 59.267 10.9206 0
1 60.528 11.6486 0
1 61.789 10.9206 0
1 63.05 11.6486 0
1 64.311 10.9206 0
1 65.572 11.6486 0
1 66.833 10.9206 0
1 68.094 11.6486 0
1 69.355 10.9206 0
1 70.616 11.6486 0
1 71.877 10.9206 0
1 73.138 11.6486 0
1 74.399 10.9206 0
1 75.66 11.6486 0
1 76.921 10.9206 0
1 78.182 11.6486 0
1 79.443 10.9206 0
1 80.704 11.6486 0
1 81.965 10.9206 0
1 83.226 11.6486 0
1 84.487 10.9206 0
1 85.748 11.6486 0
1 87.009 10.9206 0
1 88.27 11.6486 0
1 89.531 10.9206 0
1 90.792 11.6486 0
1 92.053 10.9206 0
1 93.314 11.6486 0
1 94.575 10.9206 0
1 95.836 11.6486 0
1 97.097 10.9206 0
1 98.358 11.6486 0
1 99.619 10.9206 0
1 100.88 11.6486 0
1 102.141 10.9206 0
1 103.402 11.6486 0
1 104.663 10.9206 0
1 105.924 11.6486 0
1 58.006 13.1047 0
1 59.267 13.8327 0
1 60.528 13.1047 0
1 61.789 13.8327 0
1 63.05 13.1047 0
1 64.311 13.8327 0
1 65.572 13.1047 0
1 66.833 13.8327 0
1 68.094 13.1047 0
1 69.355 13.8327 0
1 70.616 13.1047 0
1 71.877 13.8327 0
1 73.138 13.1047 0
1 74.399 13.8327 0
1 75.66 13.1047 0
1 76.921 13.8327 0
1 78.182 13.1047 0
1 79.443 13.8327 0
1 80.704 13.1047 0
1 81.965 13.8327 0
1 83.226 13.1047 0
1 84.487 13.8327 0
1 85.748 13.1047 0
1 87.009 13.8327 0
1 88.27 13.1047 0
1 89.531 13.8327 0
1 90.792 13.1047 0
1 92.053 13.8327 0
1 93.314 13.1047 0
1 94.575 13.8327 0
1 95.836 13.1047 0
1 97.097 13.8327 0
1 98.358 13.1047 0
1 99.619 13.8327 0
1 100.88 13.1047 0
1 102.141 13.8327 0
1 103.402 13.1047 0
1 104.663 13.8327 0
1 105.924 13.1047 0
1 107.185 13.8327 0
1 59.267 15.2888 0
1 60.528 16.0169 0
1 61.789 15.2888 0
1 63.05 16.0169 0
1 64.311 15.2888 0
1 65.572 16.0169 0
1 66.833 15.2888 0
1 68.094 16.0169 0
1 69.355 15.2888 0
1 70.616 16.0169 0
1 71.877 15.2888 0
1 73.138 16.0169 0
1 74.399 15.2888 0
1 75.66 16.0169 0
1 76.921 15.2888 0
1 78.182 16.0169 0
1 79.443 15.2888 0
1 80.704 16.0169 0
1 81.965 15.2888 0
1 83.226 16.0169 0
1 84.487 15.2888 0
1 85.748 16.0169 0
1 87.009 15.2888 0
1 88.27 16.0169 0
1 89.531 15.2888 0
1 90.792 16.0169 0
1 92.053 15.2888 0
1 93.314 16.0169 0
1 94.575 15.2888 0
1 95.836 16.0169 0
1 97.097 15.2888 0
1 98.358 16.0169 0
1 99.619 15.2888 0
1 100.88 16.0169 0
1 102.141 15.2888 0
1 103.402 16.0169 0
1 104.663 15.2888 0
1 105.924 16.0169 0
1 107.185 15.2888 0
1 108.446 16.0169 0
1 60.528 17.4729 0
1 61.789 18.201 0
1 63.05 17.4729 0
1 64.311 18.201 0
1 65.572 17.4729 0
1 66.833 18.201 0
1 68.094 17.4729 0
1 69.355 18.201 0
1 70.616 17.4729 0
1 71.877 18.201 0
1 73.138 17.4729 0
1 74.399 18.201 0
1 75.66 17.4729 0
1 76.921 18.201 0
1 78.182 17.4729 0
1 79.443 18.201 0
1 80.704 17.4729 0
1 81.965 18.201 0
1 83.226 17.4729 0
1 84.487 18.201 0
1 85.748 17.4729 0
1 87.009 18.201 0
1 88.27 17.4729 0
1 89.531 18.201 0
1 90.792 17.4729 0
1 92.053 18.201 0
1 93.314 17.4729 0
1 94.575 18.201 0
1 95.836 17.4729 0
1 97.097 18.201 0
1 98.358 17.4729 0
1 99.619 18.201 0
1 100.88 17.4729 0
1 102.141 18.201 0
1 103.402 17.4729 0
1 104.663 18.201 0
1 105.924 17.4729 0
1 107.185 18.201 0
1 108.446 17.4729 0
1 109.707 18.201 0
1 61.789 19.657 0
1 63.05 20.3851 0
1 64.311 19.657 0
1 65.572 20.3851 0
1 66.833 19.657 0
1 68.094 20.3851 0
1 69.355 19.657 0
1 70.616 20.3851 0
1 71.877 19.657 0
1 73.138 20.3851 0
1 74.399 19.657 0
1 75.66 20.3851 0
1 76.921 19.657 0
1 78.182 20.3851 0
1 79.443 19.657 0
1 80.704 20.3851 0
1 81.965 19.657 0
1 83.226 20.3851 0
1 84.487 19.657 0
1 85.748 20.3851 0
1 87.009 19.657 0
1 88.27 20.3851 0
1 89.531 19.657 0
1 90.792 20.3851 0
1 92.053 19.657 0
1 93.314 20.3851 0
1 94.575 19.657 0
1 95.836 20.3851 0
1 97.097 19.657 0
1 98.358 20.3851 0
1 99.619 19.657 0
1 100.88 20.3851 0
1 102.141 19.657 0
1 103.402 20.3851 0
1 104.663 19.657 0
1 105.924 20.3851 0
1 107.185 19.657 0
1 108.446 20.3851 0
1 109.707 19.657 0
1 110.968 20.3851 0
1 63.05 21.8412 0
1 64.311 22.5692 0
1 65.572 21.8412 0
1 66.833 22.5692 0
1 68.094 21.8412 0
1 69.355 22.5692 0
1 70.616 21.8412 0
1 71.877 22.5692 0
1 73.138 21.8412 0
1 74.399 22.5692 0
1 75.66 21.8412 0
1 76.921 22.5692 0
1 78.182 21.8412 0
1 79.443 22.5692 0
1 80.704 21.8412 0
1 81.965 22.5692 0
1 83.226 21.8412 0
1 84.487 22.5692 0
1 85.748 21.8412 0
1 87.009 22.5692 0
1 88.27 21.8412 0
1 89.531 22.5692 0
1 90.792 21.8412 0
1 92.053 22.5692 0
1 93.314 21.8412 0
1 94.575 22.5692 0
1 95.836 21.8412 0
1 97.097 22.5692 0
1 98.358 21.8412 0
1 99.619 22.5692 0
1 100.88 21.8412 0
1 102.141 22.5692 0
1 103.402 21.8412 0
1 104.663 22.5692 0
1 105.924 21.8412 0
1 107.185 22.5692 0
1 108.446 21.8412 0
1 109.707 22.5692 0
1 110.968 21.8412 0
1 112.229 22.5692 0
1 64.311 24.0253 0
1 65.572 24.7533 0
1 66.833 24.0253 0
1 68.094 24.7533 0
1 69.355 24.0253 0
1 70.616 24.7533 0
1 71.877 24.0253 0
1 73.138 24.7533 0
1 74.399 24.0253 0
1 75.66 24.7533 0
1 76.921 24.0253 0
1 78.182 24.7533 0
1 79.443 24.0253 0
1 80.704 24.7533 0
1 81.965 24.0253 0
1 83.226 24.7533 0
1 84.487 24.0253 0
1 85.748 24.7533 0
1 87.009 24.0253 0
1 88.27 24.7533 0
1 89.531 24.0253 0
1 90.792 24.7533 0
1 92.053 24.0253 0
1 93.314 24.7533 0
1 94.575 24.0253 0
1 95.836 24.7533 0
1 97.097 24.0253 0
1 98.358 24.7533 0
1 99.619 24.0253 0
1 100.88 24.7533 0
1 102.141 24.0253 0
1 103.402 24.7533 0
1 104.663 24.0253 0
1 105.924 24.7533 0
1 107.185 24.0253 0
1 108.446 24.7533 0
1 109.707 24.0253 0
1 110.968 24.7533 0
1 112.229 24.0253 0
1 113.49 24.7533 0
1 65.572 26.2094 0
1 66.833 26.9374 0
1 68.094 26.2094 0
1 69.355 26.9374 0
1 70.616 26.2094 0
1 71.877 26.9374 0
1 73.138 26.2094 0
1 74.399 26.9374 0
1 75.66 26.2094 0
1 76.921 26.9374 0
1 78.182 26.2094 0
1 79.443 26.9374 0
1 80.704 26.2094 0
1 81.965 26.9374 0
1 83.226 26.2094 0
1 84.487 26.9374 0
1 85.748 26.2094 0
1 87.009 26.9374 0
1 88.27 26.2094 0
1 89.531 26.9374 0
1 90.792 26.2094 0
1 92.053 26.9374 0
1 93.314 26.2094 0
1 94.575 26.9374 0
1 95.836 26.2094 0
1 97.097 26.9374 0
1 98.358 26.2094 0
1 99.619 26.9374 0
1 100.88 26.2094 0
1 102.141 26.9374 0
1 103.402 26.2094 0
1 104.663 26.9374 0
1 105.924 26.2094 0
1 107.185 26.9374 0
1 108.446 26.2094 0
1 109.707 26.9374 0
1 110.968 26.2094 0
1 112.229 26.9374 0
1 113.49 26.2094 0
1 114.751 26.9374 0
1 66.833 28.3935 0
1 68.094 29.1215 0
1 69.355 28.3935 0
1 70.616 29.1215 0
1 71.877 28.3935 0
1 73.138 29.1215 0
1 74.399 28.3935 0
1 75.66 29.1215 0
1 76.921 28.3935 0
1 78.182 29.1215 0
1 79.443 28.3935 0
1 80.704 29.1215 0
1 81.965 28.3935 0
1 83.226 29.1215 0
1 84.487 28.3935 0
1 85.748 29.1215 0
1 87.009 28.3935 0
1 88.27 29.1215 0
1 89.531 28.3935 0
1 90.792 29.1215 0
1 92.053 28.3935 0
1 93.314 29.1215 0
1 94.575 28.3935 0
1 95.836 29.1215 0
1 97.097 28.3935 0
1 98.358 29.1215 0
1 99.619 28.3935 0
1 100.88 29.1215 0
1 102.141 28.3935 0
1 103.402 29.1215 0
1 104.663 28.3935 0
1 105.924 29.1215 0
1 107.185 28.3935 0
1 108.446 29.1215 0
1 109.707 28.3935 0
1 110.968 29.1215 0
1 112.229 28.3935 0
1 113.49 29.1215 0
1 114.751 28.3935 0
1 116.012 29.1215 0
1 68.094 30.5776 0
1 69.355 31.3057 0
1 70.616 30.5776 0
1 71.877 31.3057 0
1 73.138 30.5776 0
1 74.399 31.3057 0
1 75.66 30.5776 0
1 76.921 31.3057 0
1 78.182 30.5776 0
1 79.443 31.3057 0
1 80.704 30.5776 0
1 81.965 31.3057 0
1 83.226 30.5776 0
1 84.487 31.3057 0
1 85.748 30.5776 0
1 87.009 31.3057 0
1 88.27 30.5776 0
1 89.531 31.3057 0
1 90.792 30.5776 0
1 92.053 31.3057 0
1 93.314 30.5776 0
1 94.575 31.3057 0
1 95.836 30.5776 0
1 97.097 31.3057 0
1 98.358 30.5776 0
1 99.619 31.3057 0
1 100.88 30.5776 0
1 102.141 31.3057 0
1 103.402 30.5776 0
1 104.663 31.3057 0
1 105.924 30.5776 0
1 107.185 31.3057 0
1 108.446 30.5776 0
1 109.707 31.3057 0
1 110.968 30.5776 0
1 112.229 31.3057 0
1 113.49 30.5776 0
1 114.751 31.3057 0
1 116.012 30.5776 0
1 117.273 31.3057 0
1 69.355 32.7617 0
1 70.616 33.4898 0
1 71.877 32.7617 0
1 73.138 33.4898 0
1 74.399 32.7617 0
1 75.66 33.4898 0
1 76.921 32.7617 0
1 78.182 33.4898 0
1 79.443 32.7617 0
1 80.704 33.4898 0
1 81.965 32.7617 0
1 83.226 33.4898 0
1 84.487 32.7617 0
1 85.748 33.4898 0
1 87.009 32.7617 0
1 88.27 33.4898 0
1 89.531 32.7617 0
1 90.792 33.4898 0
1 92.053 32.7617 0
1 93.314 33.4898 0
1 94.575 32.7617 0
1 95.836 33.4898 0
1 97.097 32.7617 0
1 98.358 33.4898 0
1 99.619 32.7617 0
1 100.88 33.4898 0
1 102.141 32.7617 0
1 103.402 33.4898 0
1 104.663 32.7617 0
1 105.924 33.4898 0
1 107.185 32.7617 0
1 108.446 33.4898 0
1 109.707 32.7617 0
1 110.968 33.4898 0
1 112.229 32.7617 0
1 113.49 33.4898 0
1 114.751 32.7617 0
1 116.012 33.4898 0
1 117.273 32.7617 0
1 118.534 33.4898 0
1 70.616 34.9459 0
1 71.877 35.6739 0
1 73.138 34.9459 0
1 74.399 35.6739 0
1 75.66 34.9459 0
1 76.921 35.6739 0
1 78.182 34.9459 0
1 79.443 35.6739 0
1 80.704 34.9459 0
1 81.965 35.6739 0
1 83.226 34.9459 0
1 84.487 35.6739 0
1 85.748 34.9459 0
1 87.009 35.6739 0
1 88.27 34.9459 0
1 89.531 35.6739 0
1 90.792 34.9459 0
1 92.053 35.6739 0
1 93.314 34.9459 0
1 94.575 35.6739 0
1 95.836 34.9459 0
1 97.097 35.6739 0
1 98.358 34.9459 0
1 99.619 35.6739 0
1 100.88 34.9459 0
1 102.141 35.6739 0
1 103.402 34.9459 0
1 104.663 35.6739 0
1 105.924 34.9459 0
1 107.185 35.6739 0
1 108.446 34.9459 0
1 109.707 35.6739 0
1 110.968 34.9459 0
1 112.229 35.6739 0
1 113.49 34.9459 0
1 114.751 35.6739 0
1 116.012 34.9459 0
1 117.273 35.6739 0
1 118.534 34.9459 0
1 119.795 35.6739 0
1 71.877 37.13 0
1 73.138 37.858 0
1 74.399 37.13 0
1 75.66 37.858 0
1 76.921 37.13 0
1 78.182 37.858 0
1 79.443 37.13 0
1 80.704 37.858 0
1 81.965 37.13 0
1 83.226 37.858 0
1 84.487 37.13 0
1 85.748 37.858 0
1 87.009 37.13 0
1 88.27 37.858 0
1 89.531 37.13 0
1 90.792 37.858 0
1 92.053 37.13 0
1 93.314 37.858 0
1 94.575 37.13 0
1 95.836 37.858 0
1 97.097 37.13 0
1 98.358 37.858 0
1 99.619 37.13 0