# Graphene cell with dimension 10 x 10 x 1 and a = 2.522
       200  atoms
         1  atom types

 0.    25.22000000000000  xlo xhi
 0.    21.84116068344354  ylo yhi
-10.   10.00000000000000  zlo zhi
   12.61000000000000     0.00000000000000     0.00000000000000 xy xz yz

Atoms

1 1     0.360    0.080    0
2 1     4.750    8.711    0
3 1     4.829    7.209    0
4 1     12.363   11.664    0
5 1     8.591   15.411    0
6 1     9.973   17.590    0
7 1     21.479   18.091    0
8 1     11.430   19.720    0
9 1    12.621   20.302    0
10 1    13.903   19.555    0
11 1    15.171   20.241    0
12 1    16.416   19.453    0
13 1    17.677   20.247    0
14 1    18.921   19.460    0
15 1    20.154   20.299    0
16 1    21.451   19.557    0
17 1    22.701   20.398    0
18 1    24.007   19.655    0
19 1    25.269   20.480    0
20 1    26.567   19.715    0
21 1     27.833   20.528    0
22 1     29.124   19.751    0
23 1     30.392   20.555    0
24 1     31.666   19.781    0
25 1     32.951   20.567    0
26 1     34.109   19.749    0
27 1     34.982   20.267    0
28 1    11.329   18.232    0
29 1    12.569   17.442    0
30 1    13.878   18.096    0
31 1    15.130   17.303    0
32 1    16.415   17.985    0
33 1    17.674   17.210    0
34 1    18.933   17.987    0
35 1    20.222   17.301    0
36 1    22.784   17.424    0
37 1    24.042   18.191    0
38 1    25.338   17.493    0
39 1    26.599   18.248    0
40 1    27.886   17.531    0
41 1     29.148   18.282    0
42 1     30.429   17.559    0
43 1     31.690   18.310    0
44 1     32.973   17.590    0
45 1     34.275   18.346    0
46 1     9.942   16.092    0
47 1    11.191   15.321    0
48 1    12.506   15.989    0
49 1    13.754   15.221    0
50 1    15.098   15.833    0
51 1    16.355   14.998    0
52 1    17.672   15.707    0
53 1    18.985   15.002    0
54 1    20.243   15.830    0
55 1    21.570   15.206    0
56 1    22.820   15.966    0
57 1    24.116   15.278    0
58 1    25.374   16.028    0
59 1    26.658   15.312    0
60 1    27.918   16.061    0
61 1     29.198   15.335    0
62 1     30.458   16.088    0
63 1     31.739   15.369    0
64 1     33.046   16.104    0
65 1     8.593   13.900    0
66 1    9.850   13.147    0
67 1    11.129   13.863    0
68 1    12.370   13.117    0
69 1    13.636   13.810    0
70 1    14.814   13.069    0
71 1    16.170   13.559    0
72 1    19.142   13.578    0
73 1    20.452   13.092    0
74 1    21.663   13.814    0
75 1    22.922   13.095    0
76 1    24.155   13.823    0
77 1    25.425   13.102    0
78 1    26.685   13.844    0
79 1    27.958   13.113    0
80 1    29.220   13.862    0
81 1     30.496   13.135    0
82 1     31.810   13.864    0
83 1     7.263   13.187    0
84 1     7.311   11.676    0
85 1    8.581   10.939    0
86 1    9.843   11.677    0
87 1    11.110   10.939    0
88 1    13.618   10.943    0
89 1    14.811   11.628    0
90 1    16.143   11.090    0
91 1    19.138   11.135    0
92 1    20.453   11.632    0
93 1    21.659   10.915    0
94 1    22.919   11.638    0
95 1    24.156   10.917    0
96 1    25.426   11.640    0
97 1    26.691   10.904    0
98 1    27.962   11.641    0
99 1    29.232   10.905    0
100 1    30.555   11.628    0
101 1     5.993   10.948    0
102 1     6.065    9.441    0
103 1     7.345    8.719    0
104 1    8.606    9.468    0
105 1    9.889    8.742    0
106 1    11.152    9.478    0
107 1    12.449    8.771    0
108 1    13.712    9.514    0
109 1    15.052    8.894    0
110 1    16.319    9.746    0
111 1    17.634    9.019    0
112 1    18.963    9.712    0
113 1    20.223    8.890    0
114 1    21.556    9.524    0
115 1    22.812    8.776    0
116 1    24.114    9.464    0
117 1    25.379    8.721    0
118 1    26.668    9.436    0
119 1    27.931    8.691    0
120 1    29.266    9.396    0
121 1     6.113    6.494    0
122 1     7.373    7.249    0
123 1    8.660    6.531    0
124 1    9.924    7.278    0
125 1    11.218    6.572    0
126 1    12.487    7.319    0
127 1    13.796    6.644    0
128 1    15.070    7.420    0
129 1    16.362    6.722    0
130 1    17.630    7.502    0
131 1    18.901    6.724    0
132 1    20.195    7.420    0
133 1    21.466    6.646    0
134 1    22.774    7.321    0
135 1    24.042    6.566    0
136 1    25.341    7.259    0
137 1    26.601    6.504    0
138 1    27.947    7.185    0
139 1    3.518    6.480    0
140 1    3.595    4.979    0
141 1     4.881    4.269    0
142 1    6.140    5.025    0
143 1    7.427    4.310    0
144 1    8.688    5.064    0
145 1    9.978    4.355    0
146 1    11.243    5.109    0
147 1    12.537    4.412    0
148 1    13.805    5.175    0
149 1    15.092    4.471    0
150 1    16.359    5.238    0
151 1    17.629    4.499    0
152 1    18.898    5.241    0
153 1    20.164    4.477    0
154 1    21.451    5.179    0
155 1    22.716    4.417    0
156 1    24.011    5.105    0
157 1    25.265    4.338    0
158 1    26.614    5.004    0
159 1    2.289    4.242    0
160 1    2.365    2.759    0
161 1    3.651    2.045    0
162 1    4.909    2.799    0
163 1    6.193    2.085    0
164 1    7.453    2.841    0
165 1    8.740    2.130    0
166 1    10.000    2.888    0
167 1    11.289    2.183    0
168 1    12.550    2.943    0
169 1    13.834    2.236    0
170 1    15.095    2.997    0
171 1    16.368    2.273    0
172 1    17.629    3.023    0
173 1    18.893    2.278    0
174 1    20.160    3.006    0
175 1    21.419    2.248    0
176 1    22.697    2.953    0
177 1    23.945    2.181    0
178 1    25.267    2.852    0
179 1    1.065    2.000    0
180 1    1.233    0.600    0
181 1    2.395   -0.217    0
182 1    3.677    0.574    0
183 1    4.951   -0.194    0
184 1    6.215    0.616    0
185 1    7.505   -0.155    0
186 1    8.763    0.663    0
187 1    10.052   -0.108    0
188 1    11.309    0.716    0
189 1    12.594   -0.056    0
190 1    13.849    0.768    0
191 1    15.126   -0.015    0
192 1    16.377    0.804    0
193 1    17.635    0.011    0
194 1    18.901    0.811    0
195 1    20.160    0.034    0
196 1    21.420    0.783    0
197 1    22.718    0.055    0
198 1    23.876    0.697    0
199 1    18.356   12.350    0
200 1    17.002   12.321    0
