200
Atoms. Timestep: 0
1 0.36 0.08 0
1 29.97 8.711 0
1 4.829 7.209 0
1 12.363 11.664 0
1 33.811 15.411 0
1 35.193 17.59 0
1 21.479 18.091 0
1 11.43 19.72 0
1 12.621 20.302 0
1 13.903 19.555 0
1 15.171 20.241 0
1 16.416 19.453 0
1 17.677 20.247 0
1 18.921 19.46 0
1 20.154 20.299 0
1 21.451 19.557 0
1 22.701 20.398 0
1 24.007 19.655 0
1 25.269 20.48 0
1 26.567 19.715 0
1 27.833 20.528 0
1 29.124 19.751 0
1 30.392 20.555 0
1 31.666 19.781 0
1 32.951 20.567 0
1 34.109 19.749 0
1 34.982 20.267 0
1 11.329 18.232 0
1 12.569 17.442 0
1 13.878 18.096 0
1 15.13 17.303 0
1 16.415 17.985 0
1 17.674 17.21 0
1 18.933 17.987 0
1 20.222 17.301 0
1 22.784 17.424 0
1 24.042 18.191 0
1 25.338 17.493 0
1 26.599 18.248 0
1 27.886 17.531 0
1 29.148 18.282 0
1 30.429 17.559 0
1 31.69 18.31 0
1 32.973 17.59 0
1 34.275 18.346 0
1 9.942 16.092 0
1 11.191 15.321 0
1 12.506 15.989 0
1 13.754 15.221 0
1 15.098 15.833 0
1 16.355 14.998 0
1 17.672 15.707 0
1 18.985 15.002 0
1 20.243 15.83 0
1 21.57 15.206 0
1 22.82 15.966 0
1 24.116 15.278 0
1 25.374 16.028 0
1 26.658 15.312 0
1 27.918 16.061 0
1 29.198 15.335 0
1 30.458 16.088 0
1 31.739 15.369 0
1 33.046 16.104 0
1 8.593 13.9 0
1 9.85 13.147 0
1 11.129 13.863 0
1 12.37 13.117 0
1 13.636 13.81 0
1 14.814 13.069 0
1 16.17 13.559 0
1 19.142 13.578 0
1 20.452 13.092 0
1 21.663 13.814 0
1 22.922 13.095 0
1 24.155 13.823 0
1 25.425 13.102 0
1 26.685 13.844 0
1 27.958 13.113 0
1 29.22 13.862 0
1 30.496 13.135 0
1 31.81 13.864 0
1 32.483 13.187 0
1 7.311 11.676 0
1 8.581 10.939 0
1 9.843 11.677 0
1 11.11 10.939 0
1 13.618 10.943 0
1 14.811 11.628 0
1 16.143 11.09 0
1 19.138 11.135 0
1 20.453 11.632 0
1 21.659 10.915 0
1 22.919 11.638 0
1 24.156 10.917 0
1 25.426 11.64 0
1 26.691 10.904 0
1 27.962 11.641 0
1 29.232 10.905 0
1 30.555 11.628 0
1 31.213 10.948 0
1 6.065 9.441 0
1 7.345 8.719 0
1 8.606 9.468 0
1 9.889 8.742 0
1 11.152 9.478 0
1 12.449 8.771 0
1 13.712 9.514 0
1 15.052 8.894 0
1 16.319 9.746 0
1 17.634 9.019 0
1 18.963 9.712 0
1 20.223 8.89 0
1 21.556 9.524 0
1 22.812 8.776 0
1 24.114 9.464 0
1 25.379 8.721 0
1 26.668 9.436 0
1 27.931 8.691 0
1 29.266 9.396 0
1 6.113 6.494 0
1 7.373 7.249 0
1 8.66 6.531 0
1 9.924 7.278 0
1 11.218 6.572 0
1 12.487 7.319 0
1 13.796 6.644 0
1 15.07 7.42 0
1 16.362 6.722 0
1 17.63 7.502 0
1 18.901 6.724 0
1 20.195 7.42 0
1 21.466 6.646 0
1 22.774 7.321 0
1 24.042 6.566 0
1 25.341 7.259 0
1 26.601 6.504 0
1 27.947 7.185 0
1 28.738 6.48 0
1 3.595 4.979 0
1 4.881 4.269 0
1 6.14 5.025 0
1 7.427 4.31 0
1 8.688 5.064 0
1 9.978 4.355 0
1 11.243 5.109 0
1 12.537 4.412 0
1 13.805 5.175 0
1 15.092 4.471 0
1 16.359 5.238 0
1 17.629 4.499 0
1 18.898 5.241 0
1 20.164 4.477 0
1 21.451 5.179 0
1 22.716 4.417 0
1 24.011 5.105 0
1 25.265 4.338 0
1 26.614 5.004 0
1 27.509 4.242 0
1 2.365 2.759 0
1 3.651 2.045 0
1 4.909 2.799 0
1 6.193 2.085 0
1 7.453 2.841 0
1 8.74 2.13 0
1 10 2.888 0
1 11.289 2.183 0
1 12.55 2.943 0
1 13.834 2.236 0
1 15.095 2.997 0
1 16.368 2.273 0
1 17.629 3.023 0
1 18.893 2.278 0
1 20.16 3.006 0
1 21.419 2.248 0
1 22.697 2.953 0
1 23.945 2.181 0
1 25.267 2.852 0
1 26.285 2 0
1 1.233 0.6 0
1 15.005 21.6242 0
1 3.677 0.574 0
1 17.561 21.6472 0
1 6.215 0.616 0
1 20.115 21.6862 0
1 8.763 0.663 0
1 22.662 21.7332 0
1 11.309 0.716 0
1 25.204 21.7852 0
1 13.849 0.768 0
1 27.736 21.8262 0
1 16.377 0.804 0
1 17.635 0.011 0
1 18.901 0.811 0
1 20.16 0.034 0
1 21.42 0.783 0
1 22.718 0.055 0
1 23.876 0.697 0
1 18.356 12.35 0
1 17.002 12.321 0
200
Atoms. Timestep: 50000
1 12.6031 21.8355 0.328553
1 30.2269 8.70173 0.0572793
1 5.03704 7.27626 0.0566843
1 12.5839 11.6525 -0.464278
1 8.80752 15.274 -0.101684
1 35.2622 17.4687 -0.115013
1 21.4197 18.1832 0.0773574
1 36.57 19.6254 0.233594
1 12.5943 20.3631 0.252348
1 13.8842 19.6669 0.0850353
1 15.1134 20.4189 0.240794
1 16.3813 19.6782 0.393883
1 17.6627 20.4097 0.340574
1 18.9283 19.6467 0.312575
1 20.1977 20.3668 0.129085
1 21.4324 19.6353 0.0367475
1 22.7075 20.3838 -0.0641927
1 23.9809 19.6371 -0.135894
1 25.2358 20.3509 -0.257426
1 26.496 19.6453 -0.345634
1 27.7477 20.3515 -0.329543
1 28.9815 19.6646 -0.149209
1 30.2696 20.3688 -0.139349
1 31.5274 19.6366 -0.0102696
1 32.7794 20.326 0.189297
1 34.0354 19.607 0.332234
1 35.2895 20.3262 0.339249
1 11.3334 18.2144 -0.0751197
1 12.6079 17.4949 -0.190869
1 13.8586 18.2525 -0.09567
1 15.1393 17.5072 -0.00460741
1 16.3786 18.2038 0.310457
1 17.6592 17.4887 0.324784
1 18.9181 18.1945 0.310948
1 20.1878 17.4776 0.25766
1 22.669 17.4674 -0.0697935
1 23.9464 18.1647 -0.198967
1 25.1966 17.3991 -0.334647
1 26.4988 18.1728 -0.32473
1 27.7455 17.452 -0.270443
1 28.9579 18.1694 -0.136902
1 30.2263 17.4618 -0.120166
1 31.494 18.1622 0.106531
1 32.7816 17.4492 0.172522
1 34.0541 18.1723 0.120211
1 10.0715 16.0193 -0.255081
1 11.3528 15.3296 -0.443843
1 12.6038 16.1143 -0.375926
1 13.8841 15.3691 -0.336514
1 15.1242 16.0756 -0.0868364
1 16.3685 15.3435 -0.0128799
1 17.6435 16.0415 0.168865
1 18.8889 15.2885 0.0389271
1 20.1398 16.0186 0.00944793
1 21.4416 15.2768 0.0100406
1 22.7018 16.0194 0.0680807
1 23.9798 15.2368 -0.0266772
1 25.1976 15.9568 -0.333316
1 26.466 15.2431 -0.263329
1 27.7337 15.9609 -0.163332
1 28.967 15.266 -0.0304531
1 30.2384 15.9754 -0.112622
1 31.5183 15.2322 -0.0363777
1 32.7635 15.9567 0.00789194
1 8.79601 13.8011 -0.180563
1 10.0461 13.0812 -0.346182
1 11.3504 13.793 -0.493631
1 12.5793 13.1135 -0.518461
1 13.8392 13.9 -0.35328
1 15.0867 13.1694 -0.168426
1 16.3647 13.8975 -0.0989789
1 18.8982 13.8635 0.0984572
1 20.1635 13.13 0.199285
1 21.3985 13.7993 0.166594
1 22.6648 13.0798 0.0849499
1 23.9557 13.7985 0.0419587
1 25.2396 13.0952 -0.0366169
1 26.46 13.8291 -0.0918005
1 27.7316 13.093 0.174599
1 28.9907 13.8083 0.160126
1 30.2279 13.0861 0.112398
1 31.4939 13.8013 -0.0827017
1 32.748 13.0708 -0.161153
1 7.53708 11.6724 -0.154066
1 8.79909 10.9429 -0.242927
1 10.0477 11.633 -0.424778
1 11.3164 10.94 -0.458762
1 13.8139 10.9643 -0.295589
1 15.0864 11.6852 -0.096588
1 16.3666 10.9929 -0.0360661
1 18.8816 10.942 0.258621
1 20.1332 11.6719 0.312005
1 21.418 10.9334 0.325087
1 22.6657 11.645 0.221834
1 23.9129 10.9078 0.175537
1 25.2265 11.6158 0.0774518
1 26.4977 10.8919 0.277151
1 27.7418 11.6295 0.232731
1 28.9852 10.8714 0.12709
1 30.2503 11.6023 0.0788761
1 31.5221 10.9226 -0.0151942
1 6.28037 9.46802 0.0695773
1 7.56345 8.78833 -0.0531922
1 8.82269 9.52398 -0.198744
1 10.0689 8.75369 -0.330927
1 11.3426 9.42669 -0.537522
1 12.5815 8.72827 -0.54478
1 13.8519 9.50491 -0.430559
1 15.1437 8.77306 -0.385504
1 16.3959 9.51241 -0.201089
1 17.6403 8.76606 0.0158923
1 18.8849 9.4909 0.145883
1 20.1647 8.74802 0.0680478
1 21.4386 9.45136 0.218344
1 22.7139 8.70251 0.294573
1 23.9542 9.42598 0.218326
1 25.2104 8.741 0.457037
1 26.4562 9.45424 0.399573
1 27.7147 8.69451 0.359569
1 28.9729 9.43125 0.141115
1 6.33375 6.55639 -0.0495735
1 7.61196 7.29304 -0.0286382
1 8.82608 6.58376 -0.210218
1 10.0437 7.29502 -0.339638
1 11.3379 6.56181 -0.350057
1 12.5901 7.29793 -0.457268
1 13.8847 6.56087 -0.576457
1 15.1876 7.2932 -0.497345
1 16.4266 6.57925 -0.300282
1 17.6752 7.27348 -0.072245
1 18.9346 6.55948 0.163142
1 20.1668 7.27453 0.0889995
1 21.4305 6.53383 0.208923
1 22.717 7.2611 0.317964
1 23.951 6.53305 0.429713
1 25.2077 7.26193 0.458894
1 26.5161 6.54421 0.488744
1 27.7272 7.26874 0.351895
1 3.78319 6.54008 0.252722
1 3.79597 5.09368 0.311819
1 5.05873 4.3806 0.118395
1 6.32788 5.08371 -0.106402
1 7.58303 4.37103 -0.0505149
1 8.82268 5.11501 -0.249606
1 10.0726 4.36677 -0.351342
1 11.3314 5.12584 -0.396993
1 12.6188 4.40092 -0.437635
1 13.8753 5.10225 -0.470795
1 15.1712 4.41424 -0.275598
1 16.4269 5.14613 -0.220263
1 17.7133 4.39708 -0.103393
1 18.9394 5.10846 0.139883
1 20.1744 4.36811 0.273819
1 21.4356 5.09178 0.285707
1 22.7308 4.34019 0.385051
1 23.9559 5.09405 0.513708
1 25.2294 4.38244 0.578337
1 26.4925 5.10701 0.508901
1 2.55791 4.38124 0.50708
1 2.5612 2.89953 0.352444
1 3.75883 2.17457 0.189868
1 5.0599 2.88938 0.157048
1 6.3013 2.17444 -0.0299841
1 7.52455 2.91377 -0.109585
1 8.82325 2.17431 -0.170584
1 10.0951 2.89817 -0.314141
1 11.3676 2.201 -0.316831
1 12.6338 2.93879 -0.425033
1 13.9157 2.20696 -0.316229
1 15.1592 2.90647 -0.393522
1 16.4121 2.17499 -0.244047
1 17.6773 2.88293 -0.0920312
1 18.9345 2.17801 0.144113
1 20.1746 2.89993 0.196401
1 21.4225 2.17393 0.304596
1 22.6889 2.90219 0.407935
1 23.9599 2.16885 0.459695
1 25.2798 2.91904 0.495613
1 1.26727 2.19703 0.323858
1 1.23413 0.724654 0.297279
1 15.1046 21.8367 0.174142
1 3.76047 0.737875 0.148669
1 17.6587 21.8523 0.234236
1 6.31337 0.70755 0.0305269
1 20.1802 21.8315 0.0921449
1 8.84023 0.720104 -0.0440013
1 10.1041 -0.0492268 -0.139533
1 11.3802 0.699405 -0.235675
1 12.6432 -0.00340076 -0.300278
1 13.9145 0.749039 -0.331886
1 27.7845 21.8756 -0.297491
1 16.4254 0.719249 -0.238626
1 30.3001 21.8231 -0.0893829
1 18.9245 0.696111 0.155148
1 20.1836 -0.0643553 0.285185
1 21.4248 0.687687 0.35629
1 35.3021 21.7872 0.37803
1 23.9833 0.699813 0.457909
1 17.643 13.1594 0.000626166
1 17.6226 11.692 0.133003
200
Atoms. Timestep: 100000
1 25.198 -0.0346359 -0.374405
1 5.03427 8.72836 0.154949
1 5.02716 7.26318 0.117784
1 12.6341 11.6098 -0.338411
1 34.0223 15.256 -0.0397585
1 35.3423 17.4109 -0.0136307
1 21.4413 18.1809 -0.176008
1 36.5886 19.6113 -0.218961
1 12.6122 20.3547 -0.251248
1 13.8705 19.6413 -0.238509
1 15.1503 20.3401 -0.150627
1 16.3938 19.6322 -0.3277
1 17.6476 20.3961 -0.321835
1 18.9012 19.6435 -0.207942
1 20.1636 20.3414 -0.0471446
1 21.4248 19.6234 -0.23755
1 22.6837 20.3604 -0.246033
1 23.9122 19.6533 -0.180187
1 25.1565 20.4012 -0.171881
1 26.448 19.6643 -0.0471052
1 27.7102 20.4074 0.0455683
1 28.9976 19.6971 0.163225
1 30.2523 20.4308 0.156597
1 31.528 19.6807 -0.0145605
1 32.8049 20.3919 -0.0893333
1 34.0646 19.6428 -0.0694927
1 35.3281 20.352 -0.282227
1 11.3437 18.1285 -0.132772
1 12.6136 17.4345 -0.106734
1 13.8899 18.1689 -0.218565
1 15.1624 17.4908 -0.259156
1 16.4082 18.1857 -0.294317
1 17.6158 17.4463 -0.240193
1 18.8922 18.1793 -0.155164
1 20.1717 17.4553 -0.0302588
1 22.6797 17.4835 -0.0270282
1 23.9145 18.2425 -0.0665901
1 25.2235 17.5035 0.0634428
1 26.4221 18.2233 0.0759122
1 27.7 17.4889 0.203053
1 29.0138 18.2147 0.15147
1 30.2639 17.4577 0.0716566
1 31.5129 18.2027 0.0982763
1 32.787 17.4702 -0.00311443
1 34.0672 18.1782 0.0910005
1 10.0819 15.9869 -0.0856116
1 11.3433 15.2571 -0.0440112
1 12.5909 15.9894 -0.0851084
1 13.852 15.2596 -0.16204
1 15.1341 15.997 -0.198619
1 16.3684 15.293 -0.0851421
1 17.6232 16.0073 -0.15963
1 18.8951 15.2575 0.00936703
1 20.1368 15.9992 0.0136462
1 21.404 15.2614 0.19185
1 22.6703 16.0213 0.17537
1 23.9356 15.3032 0.212421
1 25.2302 16.0326 0.189351
1 26.4417 15.3313 0.405774
1 27.6967 16.0345 0.270262
1 28.9687 15.3007 0.17001
1 30.247 15.9797 0.129318
1 31.515 15.244 0.054565
1 32.7715 15.9807 -0.0149364
1 8.79595 13.828 0.0889817
1 10.0771 13.0731 -0.131929
1 11.3299 13.7846 -0.14199
1 12.5976 13.0627 -0.238453
1 13.8402 13.8158 -0.154576
1 15.0949 13.0699 -0.0481957
1 16.3629 13.8334 0.00756616
1 18.901 13.8391 0.116505
1 20.1632 13.096 0.238333
1 21.4221 13.802 0.241937
1 22.6646 13.0821 0.263482
1 23.9451 13.8177 0.308191
1 25.2191 13.1039 0.532796
1 26.4392 13.8613 0.642914
1 27.7109 13.1216 0.480088
1 28.9637 13.816 0.291426
1 30.2467 13.0958 0.314257
1 31.5207 13.8127 0.2547
1 7.52957 13.0875 0.0747614
1 7.52562 11.6179 -0.0482054
1 8.82749 10.8906 -0.256161
1 10.0728 11.598 -0.357017
1 11.3396 10.9056 -0.468022
1 13.8633 10.8913 -0.142324
1 15.1277 11.6245 -0.013554
1 16.3968 10.9335 0.120183
1 18.9415 10.9261 0.124205
1 20.1909 11.6257 0.256556
1 21.4521 10.9166 0.339946
1 22.6745 11.6455 0.258285
1 24.0007 10.9108 0.417959
1 25.2366 11.638 0.420354
1 26.4721 10.9402 0.37512
1 27.7056 11.6761 0.400352
1 28.9819 10.9113 0.318788
1 30.2011 11.6228 0.117982
1 6.26184 10.8769 -0.00759679
1 6.30377 9.44061 0.066436
1 7.6034 8.68716 -0.00939568
1 8.85301 9.44277 -0.130204
1 10.1178 8.7246 -0.237932
1 11.3778 9.44644 -0.400686
1 12.6263 8.70143 -0.36273
1 13.8839 9.43797 -0.0903777
1 15.1099 8.7492 0.078845
1 16.4097 9.45533 0.187272
1 17.6798 8.74445 0.0933136
1 18.9541 9.4848 0.0568822
1 20.2238 8.73663 0.132697
1 21.468 9.47702 0.260921
1 22.7194 8.72301 0.235625
1 23.9801 9.43266 0.335306
1 25.2238 8.73423 0.254815
1 26.4655 9.48157 0.293922
1 27.7126 8.77385 0.24434
1 28.989 9.44071 0.287817
1 6.30543 6.54851 0.078105
1 7.60915 7.25731 0.0202913
1 8.84869 6.5256 0.0135925
1 10.138 7.23909 -0.138074
1 11.3714 6.48157 -0.166257
1 12.6369 7.24057 -0.239301
1 13.8943 6.53559 0.015439
1 15.1377 7.26285 0.0303315
1 16.386 6.5879 0.0876379
1 17.6889 7.30271 0.175614
1 18.93 6.51812 0.136547
1 20.2367 7.29028 0.138238
1 21.4551 6.54585 0.00835687
1 22.7232 7.30671 0.0365679
1 23.9953 6.58089 -0.130447
1 25.2235 7.28346 0.100863
1 26.4745 6.57928 0.170258
1 27.7059 7.27274 0.234685
1 28.982 6.56016 0.222079
1 3.75826 5.09182 0.189145
1 4.99757 4.39539 0.0454555
1 6.26847 5.10808 0.11283
1 7.5443 4.39005 0.136783
1 8.8369 5.11973 -0.0464371
1 10.0914 4.36412 -0.105389
1 11.3797 5.05869 -0.236087
1 12.6322 4.35881 -0.167555
1 13.9144 5.08511 -0.0285415
1 15.1313 4.36191 0.0665183
1 16.4158 5.0956 0.0188229
1 17.6774 4.33084 0.0917759
1 18.944 5.0635 -0.0231973
1 20.1916 4.36302 -0.123747
1 21.4515 5.11175 -0.18622
1 22.7233 4.40962 -0.458598
1 23.9419 5.14893 -0.298662
1 25.2138 4.41472 -0.193729
1 26.4912 5.11891 0.0942092
1 2.48713 4.39519 0.198333
1 2.48888 2.93071 0.0542214
1 3.75777 2.17834 -0.0287658
1 5.01782 2.9332 0.00982852
1 6.29752 2.22097 0.120944
1 7.53881 2.92982 0.245035
1 8.80842 2.1719 0.0840418
1 10.0662 2.90583 -0.0914451
1 11.3409 2.2226 -0.0975776
1 12.6034 2.97356 -0.0710156
1 13.8606 2.23456 0.00100631
1 15.132 2.95256 0.032667
1 16.3752 2.21875 0.0641414
1 17.6786 2.94525 0.0361754
1 18.9692 2.19814 0.0641796
1 20.231 2.91174 -0.0974821
1 21.4247 2.21026 -0.312656
1 22.7109 2.93308 -0.530182
1 23.9552 2.20274 -0.559204
1 25.2408 2.95634 -0.376712
1 26.4999 2.19714 -0.196506
1 1.27015 0.69513 -0.214252
1 2.51917 0.0193683 -0.051513
1 3.77247 0.739313 0.00770018
1 5.03326 0.0110543 -0.116198
1 6.31678 0.73361 -0.0342466
1 20.1907 21.8168 0.106464
1 8.77934 0.713167 0.091645
1 10.0697 0.042115 -0.0887291
1 11.3123 0.781221 -0.111699
1 25.2012 21.9013 -0.102379
1 13.8781 0.755767 -0.0422206
1 15.0924 0.0144944 0.121346
1 16.3781 0.786241 0.142079
1 30.268 21.8958 0.0859983
1 18.932 0.753649 0.0473753
1 32.8095 21.8495 -0.149535
1 21.4408 0.743126 -0.363928
1 22.6958 0.0165461 -0.362847
1 23.9385 0.739562 -0.488571
1 17.6424 13.1417 0.108422
1 17.6337 11.6425 0.0883189
200
Atoms. Timestep: 150000
1 12.6365 21.8501 -0.284602
1 5.01976 8.7573 0.278107
1 5.02889 7.31459 0.26881
1 12.6053 11.6184 0.0115135
1 34.0705 15.2724 -0.263067
1 35.3114 17.46 -0.175566
1 21.4309 18.2114 0.182954
1 11.3331 19.6407 -0.232201
1 12.5952 20.3946 -0.31917
1 13.8851 19.6666 -0.172626
1 15.1465 20.3788 -0.0195337
1 16.38 19.6596 0.1623
1 17.6168 20.37 0.526019
1 18.8907 19.6587 0.416093
1 20.1622 20.3392 0.377188
1 21.3958 19.6322 0.355641
1 22.6804 20.3798 0.28949
1 23.9476 19.673 0.0083289
1 25.2061 20.4162 -0.0443776
1 26.4987 19.6561 -0.13044
1 27.7369 20.3448 -0.173785
1 29.0114 19.6162 -0.247658
1 30.302 20.3445 -0.0890496
1 31.5054 19.6533 -0.198388
1 32.7595 20.3894 -0.080174
1 34.0492 19.6623 -0.170147
1 35.2788 20.3769 -0.178233
1 11.35 18.191 -0.163326
1 12.6126 17.4365 -0.185271
1 13.836 18.1589 -0.121569
1 15.122 17.4607 -0.0401032
1 16.3794 18.2285 0.121754
1 17.6348 17.506 0.139317
1 18.8749 18.1896 0.257631
1 20.125 17.466 0.0806065
1 22.7053 17.4813 0.0433943
1 23.9405 18.1984 -0.0642417
1 25.2133 17.4689 -0.349865
1 26.4822 18.225 -0.276494
1 27.7519 17.4829 -0.329786
1 29.012 18.1716 -0.31358
1 30.2623 17.4495 -0.222902
1 31.5341 18.1737 -0.238805
1 32.7653 17.4726 -0.35729
1 34.052 18.1988 -0.233885
1 10.0935 15.9869 -0.217869
1 11.3752 15.2652 -0.116866
1 12.5824 15.9882 -0.0754247
1 13.8539 15.2575 0.0592428
1 15.1475 15.978 0.00853174
1 16.3756 15.3068 0.046075
1 17.635 16.0486 -0.0160226
1 18.8952 15.3139 -0.00969431
1 20.0979 16.017 0.00789668
1 21.3615 15.2832 -0.114942
1 22.6659 16.0297 -0.07252
1 23.8968 15.3175 -0.157837
1 25.202 16.0511 -0.294692
1 26.4571 15.2798 -0.315494
1 27.739 16.0242 -0.340034
1 29.0215 15.2915 -0.254806
1 30.2557 16.0261 -0.192159
1 31.5191 15.2888 -0.151499
1 32.7806 16.0046 -0.285287
1 8.86884 13.7984 -0.177698
1 10.0967 13.0747 -0.180663
1 11.3459 13.8294 -0.0727616
1 12.6096 13.0957 0.0550278
1 13.8458 13.804 0.00293452
1 15.1022 13.0906 -0.0411164
1 16.3778 13.8362 -0.106406
1 18.8902 13.8314 -0.0452965
1 20.155 13.1306 -0.143667
1 21.3737 13.8483 -0.109172
1 22.6761 13.1015 -0.0465942
1 23.9165 13.8459 -0.0373748
1 25.1841 13.1303 -0.0190823
1 26.4243 13.8208 -0.220431
1 27.7009 13.113 -0.113451
1 29.0168 13.8395 -0.188688
1 30.2643 13.1059 -0.0402751
1 31.549 13.8044 -0.0782013
1 7.59331 13.0835 -0.166227
1 7.57638 11.6251 -0.0455062
1 8.84128 10.8535 -0.10146
1 10.1213 11.6013 -0.162739
1 11.3822 10.8773 -0.0535089
1 13.8614 10.8995 -0.022072
1 15.1235 11.6388 -0.0726725
1 16.401 10.9229 -0.129199
1 18.9112 10.921 -0.272346
1 20.1283 11.6683 -0.0961131
1 21.3966 10.924 0.0691758
1 22.6928 11.6556 0.0716172
1 23.9627 10.9543 -0.0951219
1 25.2038 11.6915 -0.0219333
1 26.4513 10.946 0.0353798
1 27.6975 11.6944 0.0681343
1 28.9761 10.9629 0.27231
1 30.2805 11.6734 0.165502
1 6.3259 10.9434 0.131844
1 6.27732 9.46282 0.270085
1 7.51909 8.70971 0.0154744
1 8.80659 9.39631 -0.100122
1 10.0522 8.69284 -0.0106307
1 11.361 9.44836 0.0918597
1 12.5994 8.6829 -0.0477493
1 13.8712 9.43156 -0.0866712
1 15.1211 8.71271 -0.252827
1 16.3784 9.46288 -0.146976
1 17.6 8.6988 -0.203031
1 18.8962 9.4648 -0.230773
1 20.168 8.73211 -0.114434
1 21.4161 9.47728 0.07323
1 22.7119 8.75205 -0.0588633
1 23.9871 9.4945 -0.166829
1 25.2435 8.73923 -0.17078
1 26.479 9.51552 -0.0924558
1 27.7202 8.79639 0.128222
1 29.0033 9.50078 0.220256
1 6.27408 6.54721 0.381542
1 7.51635 7.2648 0.291265
1 8.79708 6.58014 0.310243
1 10.044 7.26334 0.0920587
1 11.3407 6.51507 0.0641713
1 12.6267 7.23557 -0.186471
1 13.8842 6.51013 -0.217384
1 15.0995 7.22189 -0.340192
1 16.4006 6.5034 -0.174661
1 17.626 7.24091 -0.248725
1 18.9251 6.49756 -0.228446
1 20.1965 7.20885 -0.165203
1 21.4115 6.52767 0.0579941
1 22.7212 7.26724 -0.00399086
1 23.929 6.55753 -0.169686
1 25.2165 7.28151 -0.20558
1 26.4931 6.56762 -0.0739774
1 27.729 7.35172 0.119626
1 3.75795 6.60042 0.250585
1 3.79106 5.1435 0.141782
1 5.03325 4.3828 0.280426
1 6.27221 5.10084 0.476789
1 7.58489 4.36965 0.66539
1 8.83256 5.13438 0.675099
1 10.1527 4.43958 0.684775
1 11.4315 5.11916 0.302593
1 12.6365 4.34496 0.183048
1 13.9094 5.04693 -0.0176652
1 15.1201 4.32558 -0.0589508
1 16.3916 5.04397 -0.0844709
1 17.6863 4.34223 -0.0838534
1 18.9222 5.06813 -0.0850355
1 20.1904 4.35095 -0.020855
1 21.4208 5.09312 -0.00860944
1 22.6747 4.3789 -0.0563704
1 23.9634 5.10183 -0.14507
1 25.2271 4.3839 -0.077228
1 26.5143 5.11821 -0.0807368
1 2.54879 4.40694 -0.0546403
1 2.52682 2.95577 -0.131124
1 3.7897 2.20312 0.0728958
1 5.07245 2.93179 0.20547
1 6.30622 2.24013 0.511785
1 7.58375 2.93189 0.603954
1 8.83137 2.17542 0.671661
1 10.1207 2.969 0.722716
1 11.3603 2.18993 0.480284
1 12.6008 2.92531 0.213829
1 13.8521 2.17101 0.0346365
1 15.0984 2.88461 -0.0554674
1 16.4397 2.16157 0.0345086
1 17.705 2.90739 -0.0639531
1 18.9605 2.17829 -0.0286465
1 20.2033 2.91265 -0.021688
1 21.4939 2.16616 -0.0173493
1 22.7226 2.87962 0.0131246
1 23.9887 2.17495 -0.0222045
1 25.2426 2.93108 -0.0289227
1 1.26975 2.22081 -0.147867
1 1.29244 0.721518 -0.189409
1 15.1356 21.8264 -0.025781
1 3.7353 0.73982 0.231178
1 17.634 21.8227 0.456332
1 6.28926 0.735774 0.541873
1 7.57683 -0.00357843 0.489749
1 8.84016 0.75383 0.494614
1 10.063 0.0332317 0.315832
1 11.3345 0.721135 0.334952
1 12.5848 -0.0128894 0.0685077
1 13.8309 0.727318 0.107238
1 15.1296 -0.00890283 -0.0576723
1 16.4208 0.729696 -0.00126287
1 17.6829 0.0339899 -0.0520527
1 18.9183 0.749225 0.0599764
1 32.7938 21.8438 0.0519527
1 21.4836 0.714496 0.0308028
1 35.3137 21.8136 -0.0400197
1 23.9964 0.72796 -0.128034
1 17.659 13.0903 -0.175556
1 17.6555 11.6327 -0.229191
