200
Atoms. Timestep: 0
1 0.36 0.08 0
1 29.97 8.711 0
1 4.829 7.209 0
1 12.363 11.664 0
1 33.811 15.411 0
1 35.193 17.59 0
1 21.479 18.091 0
1 11.43 19.72 0
1 12.621 20.302 0
1 13.903 19.555 0
1 15.171 20.241 0
1 16.416 19.453 0
1 17.677 20.247 0
1 18.921 19.46 0
1 20.154 20.299 0
1 21.451 19.557 0
1 22.701 20.398 0
1 24.007 19.655 0
1 25.269 20.48 0
1 26.567 19.715 0
1 27.833 20.528 0
1 29.124 19.751 0
1 30.392 20.555 0
1 31.666 19.781 0
1 32.951 20.567 0
1 34.109 19.749 0
1 34.982 20.267 0
1 11.329 18.232 0
1 12.569 17.442 0
1 13.878 18.096 0
1 15.13 17.303 0
1 16.415 17.985 0
1 17.674 17.21 0
1 18.933 17.987 0
1 20.222 17.301 0
1 22.784 17.424 0
1 24.042 18.191 0
1 25.338 17.493 0
1 26.599 18.248 0
1 27.886 17.531 0
1 29.148 18.282 0
1 30.429 17.559 0
1 31.69 18.31 0
1 32.973 17.59 0
1 34.275 18.346 0
1 9.942 16.092 0
1 11.191 15.321 0
1 12.506 15.989 0
1 13.754 15.221 0
1 15.098 15.833 0
1 16.355 14.998 0
1 17.672 15.707 0
1 18.985 15.002 0
1 20.243 15.83 0
1 21.57 15.206 0
1 22.82 15.966 0
1 24.116 15.278 0
1 25.374 16.028 0
1 26.658 15.312 0
1 27.918 16.061 0
1 29.198 15.335 0
1 30.458 16.088 0
1 31.739 15.369 0
1 33.046 16.104 0
1 8.593 13.9 0
1 9.85 13.147 0
1 11.129 13.863 0
1 12.37 13.117 0
1 13.636 13.81 0
1 14.814 13.069 0
1 16.17 13.559 0
1 19.142 13.578 0
1 20.452 13.092 0
1 21.663 13.814 0
1 22.922 13.095 0
1 24.155 13.823 0
1 25.425 13.102 0
1 26.685 13.844 0
1 27.958 13.113 0
1 29.22 13.862 0
1 30.496 13.135 0
1 31.81 13.864 0
1 32.483 13.187 0
1 7.311 11.676 0
1 8.581 10.939 0
1 9.843 11.677 0
1 11.11 10.939 0
1 13.618 10.943 0
1 14.811 11.628 0
1 16.143 11.09 0
1 19.138 11.135 0
1 20.453 11.632 0
1 21.659 10.915 0
1 22.919 11.638 0
1 24.156 10.917 0
1 25.426 11.64 0
1 26.691 10.904 0
1 27.962 11.641 0
1 29.232 10.905 0
1 30.555 11.628 0
1 31.213 10.948 0
1 6.065 9.441 0
1 7.345 8.719 0
1 8.606 9.468 0
1 9.889 8.742 0
1 11.152 9.478 0
1 12.449 8.771 0
1 13.712 9.514 0
1 15.052 8.894 0
1 16.319 9.746 0
1 17.634 9.019 0
1 18.963 9.712 0
1 20.223 8.89 0
1 21.556 9.524 0
1 22.812 8.776 0
1 24.114 9.464 0
1 25.379 8.721 0
1 26.668 9.436 0
1 27.931 8.691 0
1 29.266 9.396 0
1 6.113 6.494 0
1 7.373 7.249 0
1 8.66 6.531 0
1 9.924 7.278 0
1 11.218 6.572 0
1 12.487 7.319 0
1 13.796 6.644 0
1 15.07 7.42 0
1 16.362 6.722 0
1 17.63 7.502 0
1 18.901 6.724 0
1 20.195 7.42 0
1 21.466 6.646 0
1 22.774 7.321 0
1 24.042 6.566 0
1 25.341 7.259 0
1 26.601 6.504 0
1 27.947 7.185 0
1 28.738 6.48 0
1 3.595 4.979 0
1 4.881 4.269 0
1 6.14 5.025 0
1 7.427 4.31 0
1 8.688 5.064 0
1 9.978 4.355 0
1 11.243 5.109 0
1 12.537 4.412 0
1 13.805 5.175 0
1 15.092 4.471 0
1 16.359 5.238 0
1 17.629 4.499 0
1 18.898 5.241 0
1 20.164 4.477 0
1 21.451 5.179 0
1 22.716 4.417 0
1 24.011 5.105 0
1 25.265 4.338 0
1 26.614 5.004 0
1 27.509 4.242 0
1 2.365 2.759 0
1 3.651 2.045 0
1 4.909 2.799 0
1 6.193 2.085 0
1 7.453 2.841 0
1 8.74 2.13 0
1 10 2.888 0
1 11.289 2.183 0
1 12.55 2.943 0
1 13.834 2.236 0
1 15.095 2.997 0
1 16.368 2.273 0
1 17.629 3.023 0
1 18.893 2.278 0
1 20.16 3.006 0
1 21.419 2.248 0
1 22.697 2.953 0
1 23.945 2.181 0
1 25.267 2.852 0
1 26.285 2 0
1 1.233 0.6 0
1 15.005 21.6242 0
1 3.677 0.574 0
1 17.561 21.6472 0
1 6.215 0.616 0
1 20.115 21.6862 0
1 8.763 0.663 0
1 22.662 21.7332 0
1 11.309 0.716 0
1 25.204 21.7852 0
1 13.849 0.768 0
1 27.736 21.8262 0
1 16.377 0.804 0
1 17.635 0.011 0
1 18.901 0.811 0
1 20.16 0.034 0
1 21.42 0.783 0
1 22.718 0.055 0
1 23.876 0.697 0
1 18.356 12.35 0
1 17.002 12.321 0
