LAMMPS (8 Feb 2019)
OMP_NUM_THREADS environment is not set. Defaulting to 1 thread. (../comm.cpp:87)
  using 1 OpenMP thread(s) per MPI task
# 3D copper block simulation
boundary     p p p
units        metal
atom_style   atomic

# geometry
read_data	 data_du-1_0.pos
  triclinic box = (0 0 -10) to (25.22 21.8412 10) with tilt (12.61 0 0)
  1 by 1 by 1 MPI processor grid
  reading atoms ...
  200 atoms

mass		*   12.0107

# EAM potential
pair_style   tersoff
pair_coeff   * * SiC.tersoff C
neighbor     2. nsq
neigh_modify every 1 delay 0 check yes

#Langevin random seed
variable     dt equal 2e-3
variable     r  equal 57085
variable     T  equal 300
variable     dT equal "v_dt * 100"

timestep ${dt}
timestep 0.002

# initialize
velocity     all create $T 28459 rot yes dist gaussian mom yes
velocity     all create 300 28459 rot yes dist gaussian mom yes
reset_timestep 0

# fixes
fix          1 all langevin $T $T ${dT} 73504 zero yes
fix          1 all langevin 300 $T ${dT} 73504 zero yes
fix          1 all langevin 300 300 ${dT} 73504 zero yes
fix          1 all langevin 300 300 0.2 73504 zero yes
fix          2 all nve
fix          3 all phonon 10 50000 1000000 map.in Graphene nasr 50

# output
#                    1    2    3  4  5     6   7
thermo_style custom step temp pe ke press pxx pyy
thermo       100

restart      1000000 restart.one restart.two

dump   1 all xyz 50000 dump.graphene.xyz

# execution
run 	 6000000
Neighbor list info ...
  update every 1 steps, delay 0 steps, check yes
  max neighbors/atom: 2000, page size: 100000
  master list distance cutoff = 4.1
  ghost atom cutoff = 4.1
  1 neighbor lists, perpetual/occasional/extra = 1 0 0
  (1) pair tersoff, perpetual
      attributes: full, newton on
      pair build: full/nsq
      stencil: none
      bin: none
Per MPI rank memory allocation (min/avg/max) = 3.919 | 3.919 | 3.919 Mbytes
Step Temp PotEng KinEng Press Pxx Pyy 
       0          300   -1310.6614    7.7168307    85882.601    192541.86    64398.202 
     100     1994.971   -1406.4581    51.316179    8084.2295    12576.655    11775.687 
     200    1022.6866   -1447.5215    26.306331    3865.5329    5986.3349    5878.0583 
     300    543.61817   -1462.6323    13.983365    2686.1267     2730.802     5244.899 
     400    442.40525   -1466.7854    11.379888    2210.1852    5284.9879    1288.5764 
     500    346.83231   -1468.4845    8.9214874    2525.5761    4413.1916    3100.7602 
     600     308.5317   -1469.5808    7.9362897    2095.1037    1564.0102    4826.5057 
     700    314.58254   -1470.3512    8.0919339    2239.2557    1981.1962     4704.851 
     800    303.54929   -1469.0932    7.8081282     2591.059    3303.9669    4563.9505 
     900     318.7812   -1470.5471     8.199935     2382.808    3691.9581    3457.2501 
    1000    311.08393   -1470.5398    8.0019399    2357.2542    3235.4829    3907.2187 
    1100    295.08715   -1470.3551    7.5904586    2888.5111    3830.0032    4957.1547 
    1200    291.95316   -1470.3569    7.5098437    3318.1309    4203.9606     5744.436 
    1300    297.99986   -1471.0507    7.6653816    3021.7701    4333.1415    4576.9655 
    1400    280.42408   -1470.4485    7.2132839    1854.4081    2923.6381    2725.1974 
    1500    317.25257   -1471.3934    8.1606144    2113.8703    3696.5111    2622.4403 
    1600    325.78471   -1470.1357    8.3800847    1981.5982    1898.8847    3944.2843 
    1700    317.03102   -1470.0622    8.1549155    1409.4468    3992.1231    424.96225 
    1800    286.52073   -1469.9927    7.3701065    2055.1092    5741.1177    528.79161 
    1900    280.76246   -1470.8673    7.2219878    1655.9705    4920.0095    105.67688 
    2000    291.92115   -1470.4474    7.5090202    2364.5175      4432.75    2636.0494 
    2100     286.9381   -1470.6623    7.3808424    2277.6791    5477.4472    1522.4138 
    2200    259.21892    -1470.632    6.6678284    2585.7642    6510.2893    1326.6804 
    2300    303.30671   -1470.8892    7.8018884    3024.3465    4934.4691    4189.0408 
    2400    293.72976   -1470.5552    7.5555427    3313.6232    5835.4947    3918.8106 
    2500    315.23631   -1470.0767    8.1087508    2678.7424    4188.8646    3727.5086 
    2600      314.338   -1469.4356    8.0856436    2773.7234    2248.2062    6055.8942 
    2700    285.55564   -1470.1096    7.3452817    1623.8255    855.94283    4127.5109 
    2800    323.82921   -1470.3695     8.329784    2789.3417    2094.2625    6204.8415 
    2900     333.6353   -1470.3063    8.5820237    2227.1845    2896.7766     3712.847 
    3000     313.6516   -1469.3548    8.0679877    2750.4138    3779.0679    4499.0567 
    3100    317.20078   -1469.6702    8.1592823    3214.3853    6164.5954    3566.6047 
    3200    292.14722   -1469.3488    7.5148354     3826.851    5410.7303    6065.8708 
    3300    337.29045   -1470.4239    8.6760443    3261.5359    4244.0332    5551.1387 
    3400    300.25111    -1469.594    7.7232899    2663.7354    3876.2502    4162.7727 
    3500    293.34964   -1470.7931     7.545765    3170.2397    3606.1455    5811.8269 
    3600    251.36604   -1470.5994    6.4658307    2103.2237    1972.0589    4492.6067 
    3700    285.37656   -1470.4408    7.3406753    1982.1451    1103.3503     4878.511 
    3800    259.79559   -1469.5311    6.6826619    1810.5474    1163.9248    4503.4402 
    3900    293.57248   -1469.5807    7.5514969    2633.0379    2083.6535    5817.3787 
    4000    289.53559   -1469.5553    7.4476571    2814.7608    3390.7571    5143.8251 
    4100     294.7827   -1470.5685    7.5826273    2595.9848     4380.798    3404.9441 
    4200    306.94269   -1469.8534    7.8954159    2054.0475     2608.244    3630.9236 
    4300    301.74855   -1470.5127    7.7618081    1475.0262    3003.9106    1426.2788 
    4400    302.47574   -1470.1696    7.7805136    3131.4363    5349.7944    3879.4872 
    4500    281.51271   -1469.8515    7.2412863    3561.5886    5181.8372    5650.8374 
    4600    300.48313    -1470.073    7.7292582     3141.314    3965.6901    5492.1302 
    4700    284.58349   -1469.9598    7.3202754    3491.3965    5663.3736    4734.7836 
    4800    306.87817   -1470.4296    7.8937563    3018.1324    5917.8942    3087.6506 
    4900    269.02307   -1470.3294    6.9200182    2553.6612    4848.7395    2919.5107 
    5000    274.42188    -1469.791    7.0588906    2433.3506     3655.756    3708.9281 
    5100    250.87016   -1470.0391     6.453075     2451.498    3240.1322    4262.5926 
    5200    282.41292   -1470.9676    7.2644424    2579.6907    4670.2396    2902.7542 
    5300    300.54195   -1470.6113     7.730771    3421.8885    3718.8531    6421.2224 
    5400    261.46618   -1469.2264     6.725634    2707.5467    3854.8829    4585.7769 
    5500    290.70836   -1469.5867    7.4778239    2718.2013    5345.8507    2981.4672 
    5600    330.97181   -1469.9611    8.5135114    2113.1056    5667.1329    626.83712 
    5700    320.10906   -1470.3836    8.2340914    2255.2583    4170.9596    2442.4123 
    5800    314.86637   -1470.1654    8.0992348    3250.9687    4071.5023    5715.7777 
    5900    300.31085   -1470.4354    7.7248266    3751.7572    6051.5468    5169.4094 
    6000    285.08418   -1469.5624    7.3331545    3167.1941    3415.1915    6090.3107 
    6100    288.24562   -1470.0283    7.4144754    2415.5984    2967.7717    4153.6454 
    6200    294.20117   -1469.7626    7.5676687    2138.6465    3217.2199    3311.1699 
    6300    308.39725   -1469.4101    7.9328311    2328.7606    3570.4736    3541.5142 
    6400    321.27634   -1470.3366    8.2641171    2685.2681    3687.6985    4138.5808 
    6500    318.70726   -1471.0495    8.1980331    3222.3876    4457.3695     4976.167 
    6600    253.58637   -1470.0825    6.5229436    3056.5346    3565.6456     5735.838 
    6700     307.0588   -1469.7811    7.8984024    2288.5628    2513.9435    4540.0122 
    6800    291.57101   -1469.8006    7.5000138    2089.1794    3133.3298     3191.731 
    6900    287.22995   -1470.6925    7.3883497    3433.0804    4603.2454    5773.7615 
    7000    286.36914   -1469.8375    7.3662071    3819.0158    4697.9468    6782.0984 
    7100    283.47465   -1470.4307    7.2917529    2770.7198    5020.1567    3275.2657 
    7200    271.74125   -1470.4096    6.9899373    2287.0089    4965.3507    2014.6054 
    7300    289.74452   -1469.7687    7.4530313    2798.2511      5129.46    3433.7858 
    7400    264.92688   -1470.0743    6.8146528    3189.6391    4936.0646    4592.0707 
    7500    288.80826   -1470.7171    7.4289482    2731.7013    5009.7229    3124.0838 
    7600    284.63563    -1469.777    7.3216164    1642.7853       3283.8    1604.8553 
    7700    293.90598   -1469.9694    7.5600756    3102.3236    3632.9033     5806.615 
    7800    310.59268   -1470.3112    7.9893037    3391.3729    4450.9718    5618.1586 
    7900    293.27246   -1470.1415    7.5437796    3022.7085    5438.0969    3484.2989 
    8000    310.93026   -1470.2504    7.9979873     2121.902    5333.9693    1159.1764 
    8100    279.98469   -1469.6299    7.2019816    2930.8912    5315.8024    3510.9327 
    8200    282.99457   -1471.0147    7.2794039    3057.4535    3860.2805    5434.1707 
    8300    282.33609   -1470.2791    7.2624661    3176.7208    4063.9873     5453.859 
    8400    315.58722   -1470.1806     8.117777    3250.3611    4608.1173    4899.2555 
    8500    319.59481   -1470.4168    8.2208635    2672.0083    4327.8678    3634.2274 
    8600    282.42362   -1470.3681    7.2647174    1981.0216    2786.2413    3136.2446 
    8700    303.80861   -1470.1436    7.8147985     1836.162    2329.7547    3224.4127 
    8800    321.44144   -1470.5182    8.2683638     2595.871    3831.2768    3923.0282 
    8900    299.04487   -1469.2241    7.6922622    3248.7102    5212.3924    4572.2469 
    9000    273.70527    -1469.387    7.0404573     2416.062    3261.7524    4268.2216 
    9100    309.11028   -1470.3084    7.9511723    2721.4228    4219.5919    3994.2883 
    9200    306.44702   -1470.2515    7.8826658     3249.856    5236.0804    4506.3541 
    9300    270.51332   -1469.2683    6.9583516    3397.1763    6935.2655    3269.3664 
    9400     274.4013   -1470.2385    7.0583612    2390.5619    3909.9108    3441.9422 
    9500    262.23007    -1470.027    6.7452834    1635.0894    1710.9958    3344.7017 
    9600    298.30722   -1470.5425    7.6732876    2788.1127     4347.642    3889.6146 
    9700    281.55774   -1470.3056    7.2424448    3070.4092    4001.0976    5144.7371 
    9800    277.95327   -1469.5485    7.1497278    3249.1024    3547.7396    6258.2795 
    9900     285.9241    -1470.213    7.3547595     3131.633    4575.2068    4792.7911 
   10000    322.73651   -1470.3003    8.3016767      2525.63    4422.9804    3033.9946 
   10100    302.67048   -1470.4182    7.7855229    2977.4285     2739.808    6276.1063 
   10200    295.68768   -1469.9805    7.6059059    2856.6989    4213.2759     4346.036 
   10300    312.18729   -1469.5966    8.0303216    2483.5155    3854.3878    3540.6597 
   10400    283.48969   -1470.0608    7.2921397    1273.7875    1219.2141    2701.1942 
   10500    278.76346   -1469.9932     7.170568    2481.2996    3101.8322    4607.7987 
   10600    296.12724   -1470.0409    7.6172126    3075.7948    5645.2505    3545.0951 
   10700    319.83237   -1470.4481    8.2269742    2169.9469    4733.8537    1913.2964 
   10800    289.88106   -1470.7864    7.4565435    2105.8855    3154.3084    3185.8239 
   10900     299.7662   -1470.2472    7.7108168    2730.7994    3515.6425    4769.6868 
   11000    304.25346   -1470.5961    7.8262415     2842.754    3845.4652    4656.3238 
   11100    300.17487    -1469.975    7.7213287    2971.4003    4588.1906    4121.1805 
   11200     278.3263   -1469.4413     7.159323    3555.7327    4568.5739    6216.7177 
   11300    259.65459   -1469.9714    6.6790349    2807.4236    2432.9413    5975.9172 
   11400    322.83894   -1470.5293    8.3043113    2909.9299    4656.9447    4072.6524 
   11500    339.35424   -1469.5303    8.7291308    2368.6426    5729.0328    1264.7075 
   11600     323.8572   -1470.5305    8.3305038    2962.0004    4843.2559    3888.6784 
   11700    279.23803   -1469.8441    7.1827753    2739.9423    4010.7634     4317.099 
   11800    303.76667   -1471.0696    7.8137197    3173.0921    4613.1678    4830.5267 
   11900    273.28258   -1469.8751    7.0295845    2565.8643    1588.6582    6134.4056 
   12000    287.28971   -1469.7473    7.3898869    2587.1194    3246.1363    4642.9495 
   12100    305.50373   -1470.3809    7.8584017    3262.8237    3819.9433    5719.3732 
   12200    294.74543   -1470.7109    7.5816685    3208.9344    4688.9764    4803.7401 
   12300    292.62933   -1470.4062    7.5272367    2515.9963    3845.7714    3660.7637 
   12400    292.66858   -1469.8551    7.5282461    3472.1792    6041.1719    4410.0094 
   12500    299.33866   -1469.9065    7.6998191    3642.1618    6667.0952    4328.7311 
   12600    320.57452   -1470.4507    8.2460643    3137.7329    5940.6872    3454.0114 
   12700    328.07907   -1469.9097    8.4391022    2988.5083     4203.847    4783.3277 
   12800    324.08968   -1469.7224    8.3364838    2393.1739      2001.19    5199.4224 
   12900    296.10005   -1469.7658     7.616513    3174.2021    5008.7191    4558.4483 
   13000    302.32766   -1469.5674    7.7767046    3177.6728    5851.2605    3698.4921 
   13100    319.71876   -1470.7392    8.2240518     3533.041    4943.9364    5434.1868 
   13200    330.24177   -1470.6477    8.4947327    3450.0489    4719.6054     5570.854 
   13300    275.72565   -1469.9332    7.0924271    3215.3416    6036.5246    3518.3963 
   13400    283.23316   -1470.0262     7.285541    2916.5186    6285.5787    2473.9319 
   13500    307.72696   -1469.4452    7.9155895    2172.8784    2250.8816    4342.9177 
   13600    293.10846   -1470.6511    7.5395611    2207.8019    1812.0289    4833.0851 
   13700     265.2728   -1469.9213     6.823551    2511.8374    2679.6288    5113.1055 
   13800     312.7682     -1470.46     8.045264    2610.8656    2960.1802    4843.4726 
   13900    298.62343   -1470.6829    7.6814214    3005.3742    4394.9721    4505.5914 
   14000    291.93531   -1470.1342    7.5093846    3232.0106    6282.8881    3452.1383 
   14100     301.8268   -1470.8732     7.763821    3195.6417    5627.3643    3908.5746 
   14200    286.19425   -1470.0469    7.3617085    3019.0715    5633.3201    3643.8646 
   14300    287.96175   -1469.9141    7.4071736    3153.4393    3837.7269    5580.0796 
   14400    300.85151    -1469.827     7.738734    3116.1323    3800.1542     5483.549 
   14500     303.0045   -1471.0655    7.7941146    2310.7542    3882.5627    3126.4964 
   14600    304.17686   -1470.9311     7.824271    3220.2923    5120.4727    4382.7374 
   14700    320.84484   -1470.7888    8.2530177    3043.9399    3852.6226    5225.2526 
   14800     288.6169   -1470.6386    7.4240258    1965.3426    1461.9613     4416.364 
   14900    296.89219   -1469.8458    7.6368891    3377.7811    4138.5698    5827.9648 
   15000    285.69559   -1469.6398    7.3488817    2870.8838     5387.252    3243.3801 
   15100    284.23808   -1470.4123    7.3113905    3178.4196    5357.8949    4205.1026 
   15200     278.7472   -1470.6266    7.1701498    2942.8936    3616.5668    5338.8479 
   15300    278.52075   -1470.0696    7.1643248    3107.2957    4581.9998    4714.7689 
   15400    295.00076   -1470.2506    7.5882365    2980.7101    4648.1514    4399.2412 
   15500    263.64188   -1470.1333    6.7815991    2985.7674    6483.8533    2489.5837 
   15600    289.33225   -1469.8127    7.4424265    3511.7292    5212.8152    5416.6433 
   15700    313.23641    -1470.568    8.0573077    3085.5524    5430.2723    3701.7241 
   15800    295.99781   -1470.0835    7.6138832     2127.404       4906.2    1612.4697 
   15900    255.34758   -1470.4133    6.5682467    2339.4628    4718.7709    2456.8088 
   16000    314.27902   -1469.9517    8.0841267    2694.1483    3559.8187    4487.8309 
   16100    305.19306   -1469.3335    7.8504105    3222.3211    6896.9644    2540.5317 
   16200    329.27773   -1469.8657     8.469935    2746.5369    5832.1072    2405.5523 
   16300    287.24614   -1469.6565     7.388766    3141.7859    4291.8204    5168.9011 
   16400    291.69304   -1470.4011    7.5031527    3443.2586    4738.8198    5663.8605 
   16500     299.7483   -1470.1539    7.7103563    3436.2101    5954.5196    4406.3453 
   16600    293.70256   -1470.2859    7.5548431     2441.884    4169.5829    3325.9013 
   16700    288.29575    -1470.002     7.415765    2596.0751    4715.3416    3060.5497 
   16800    294.02544   -1470.2238    7.5631483    2794.3651    3901.9575    4455.7902 
   16900     285.0591   -1470.4704    7.3325092    2954.7569    2724.0827    6097.0359 
   17000    307.39463   -1470.3283    7.9070409    2905.6177    2227.0542    6630.2891 
   17100    308.42884    -1469.985    7.9336437    2591.8326     2935.832     4960.259 
   17200     314.9263   -1469.8763    8.1007763    2755.1349    3528.7086     4650.935 
   17300    281.59167   -1470.4007    7.2433175    2807.6581    2735.7641    5747.9599 
   17400     290.6386   -1470.8702    7.4760294    3407.6727    4555.7485    5672.8807 
   17500    306.74667   -1469.8077    7.8903738    2924.1802    3653.7119    5039.1392 
   17600    304.20785   -1470.6411    7.8250683     2377.073    2724.3046    4414.8381 
   17700    282.92564   -1470.9184    7.2776309    2485.7713    2539.7011     4867.992 
   17800    262.93285   -1470.2598     6.763361    1497.2465    1074.5403    3562.6277 
   17900    312.25738   -1470.0288    8.0321243    2529.8252    3366.0874    4070.9279 
   18000    329.34712   -1469.9074    8.4717198    3247.2869     4913.524    4570.2199 
   18100    331.64408   -1470.1911     8.530804    3232.5504    4986.4968    4530.4545 
   18200    322.72837   -1470.7677    8.3014672    2831.2261    3505.2116    5046.3032 
   18300    301.11382   -1470.0575    7.7454812    2544.7201    3600.7931    4032.3114 
   18400    301.12575   -1470.2143    7.7457882    2362.9898    4946.5574    2061.1192 
   18500    295.91714   -1470.6399    7.6118081    3004.0552    5210.0334    3948.9949 
   18600    293.06071   -1470.4435    7.5383328    2897.6917    3572.6149    4917.2181 
   18700    293.07744   -1470.8623    7.5387633    2635.9355    3623.7864    4168.7967 
   18800    307.55186   -1469.8789    7.9110853    2544.6434    1816.7818    5927.0768 
   18900    318.89497   -1470.4914    8.2028617    3135.7134    4734.9686    4842.3595 
   19000    298.98618    -1470.614    7.6907525    2974.9203    4210.0178    4719.2758 
   19100     317.7599   -1470.4151    8.1736645    2987.1893     4061.894    4895.5174 
   19200     300.1883   -1470.5324    7.7216741    2736.3298    4730.4378    3281.1536 
   19300    291.88657   -1468.9157    7.5081307    2020.9622    4636.2732    1610.7306 
   19400     322.3374   -1470.5133    8.2914105    2108.7746    4582.6311    1692.4855 
   19500    302.23219    -1469.889    7.7742487    2113.9208    3013.5491    3319.5731 
   19600    309.45644   -1469.5807    7.9600765    3437.2832    4500.7018    5627.2564 
   19700    288.54129   -1470.5797    7.4220809    2199.4804    4819.7018    1702.2395 
   19800    287.73401    -1470.422    7.4013154    2439.1676    5320.1299    1894.2978 
   19900    290.14282   -1469.3149    7.4632766     2239.363    2739.2718    4158.7774 
   20000    306.03928   -1470.2383    7.8721776    2906.3105    3642.3456    5099.4324 
   20100    321.76661   -1470.3372     8.276728    2490.9065    2793.6545    4561.3825 
   20200    310.40326   -1469.1504    7.9844314    1697.8429    3420.0159    1734.8128 
   20300    319.74751    -1470.501    8.2247913    1818.7313    3829.8179    1714.8313 
   20400    317.14509   -1470.7023    8.1578499    2710.1301    4696.6883    3340.4403 
   20500    325.18066   -1469.3162    8.3645469    2123.6976     2517.725    3710.2453 
   20600    317.19007   -1470.6414     8.159007    2933.3698    3324.9054    5532.2377 
   20700    283.95075   -1470.2368    7.3039994    1422.8846    2320.5534    2160.8139 
   20800    276.00976   -1470.0883    7.0997353    2818.2847    4787.5745    3688.1633 
   20900    297.92748   -1470.0801    7.6635197    2918.5487    4043.7454    4654.5981 
   21000    302.57291   -1470.2096     7.783013    2274.5002    2497.9042    4318.1894 
   21100    296.32933   -1469.9927     7.622411    2807.8284    4507.5723    3829.3449 
   21200    345.35962   -1469.8881    8.8836057    2057.6198    4613.8548    1469.6875 
   21300    314.16876    -1469.896    8.0812904    1991.2293    5114.7223    1046.8977 
   21400    312.24159   -1470.5772    8.0317182    3503.9958    4318.0013    6120.6019 
   21500    321.84557   -1469.9842    8.2787592     3289.179    4033.2209    5519.6643 
   21600    277.49548   -1469.2207    7.1379522    2568.1115    4173.3059    3689.3747 
   21700    278.79888   -1470.0956    7.1714792    2360.5906    4461.7021    2629.4954 
   21800    282.29965   -1470.4947    7.2615287     3296.063    4828.8845    4997.8821 
   21900    301.71179   -1470.1113    7.7608627    2884.1472    4597.3764    3934.3923 
   22000    282.52383   -1469.2824    7.2672953    1141.7533     3283.124    328.47047 
   22100    298.09489   -1470.0007    7.6678261    2618.3707    4238.6788     3418.258 
   22200    311.55155   -1470.2806    8.0139684    1951.4061    2102.2575    3674.7362 
   22300    305.55248   -1470.6338    7.8596559     2209.548    3991.2041    2776.6498 
   22400    288.02076   -1470.3185    7.4086914    3184.9909    6801.0172    2810.8138 
   22500    326.63436      -1469.7    8.4019401    3107.4877    4387.6108    4736.9961 
   22600    310.50215   -1470.0118     7.986975    1951.3553      4965.89    895.85735 
   22700    291.15643   -1469.7853    7.4893496    1507.1473    5781.2522   -1220.0616 
   22800    276.49321   -1469.2603     7.112171    1771.5789    5630.0521   -116.67173 
   22900    302.17987    -1469.562    7.7729029    3048.0785    5563.9847    3631.9638 
   23000     296.5545   -1470.5279    7.6282029    3147.8929    5525.8052    3996.3945 
   23100    296.47009   -1469.5494    7.6260315    3027.8172    3755.0149     5368.535 
   23200    314.05259   -1470.4154    8.0783023    3065.2618    4105.1144    4927.7661 
   23300    275.17534   -1470.4656    7.0782717    2987.8093    3179.0368    5644.3883 
   23400    330.33333   -1470.0062    8.4970878     2426.774    2620.9286    4567.1914 
   23500    314.72701   -1469.0162    8.0956502     1366.569    806.02562    3324.2225 
   23600     341.7084    -1470.151    8.7896861    1479.5421    204.03442    4138.4237 
   23700    292.05023   -1469.2506    7.5123404    2557.9328     1127.105     6650.762 
   23800    304.65752   -1469.8351     7.836635    3107.1884    4016.0858    5229.1192 
   23900    291.32381   -1469.8526     7.493655    3524.3232    5818.4342    4610.3108 
   24000    306.31933   -1470.2013    7.8793813    3049.3315    6138.8061    2907.7715 
   24100     309.7422   -1470.4545    7.9674271     3562.958    5388.3638    5183.7148 
   24200     295.8574   -1470.7478    7.6102715    2903.6715    5326.8107    3210.3181 
   24300    274.20303   -1469.8336    7.0532612    2852.8994    3034.7158    5509.5399 
   24400    320.16282   -1469.4712    8.2354742    2001.7753    2452.6675    3615.4746 
   24500    297.23656   -1469.9314    7.6457474    3706.8321    5738.1322    5167.0178 
   24600    309.00676   -1470.0567    7.9485095    3117.7737    4444.0854    4916.0182 
   24700    310.32353   -1468.8037    7.9823804    2668.9701    4559.2452    3562.7073 
   24800    322.30486   -1469.7733    8.2905733    3134.8676    5141.9618    4147.1308 
   24900    294.74544   -1471.2835    7.5816689     2548.871    2760.9115    4669.0152 
   25000    291.22954   -1470.3984    7.4912301    2857.3629    4542.3645    4010.3537 
   25100     294.0636   -1470.4282    7.5641299    3362.6939    4464.8905    5605.9172 
   25200    307.81326   -1470.3556    7.9178093    2888.9537    4244.4532    4469.4987 
   25300    289.83711    -1470.251    7.4554129    1944.2278    1778.7238    3948.7903 
   25400    285.87872   -1470.2441    7.3535922    2769.2465    2916.1525    5472.9836 
   25500    285.98256   -1470.2152    7.3562634    2740.6037    4819.7106    3408.7876 
   25600    295.43888   -1471.1206    7.5995059    2659.2398    5039.7358    2979.7882 
   25700    287.13773   -1470.4833    7.3859773    2680.1139    4814.9648    3251.0969 
   25800    305.95051   -1470.9482    7.8698942      2792.01    4563.2394    3804.3917 
   25900    295.48229   -1469.9246    7.6006226    1904.3129    4958.5715    735.02678 
   26000    327.68631    -1469.954    8.4289992    2272.1933    3744.1597    3024.3798 
   26100    300.29085   -1470.3643     7.724312    2856.8499    4059.2754    4211.6305 
   26200    289.06695   -1469.7922    7.4356023     2482.846    2328.7772    5209.2473 
   26300    307.22937   -1470.7624      7.90279    2196.8835    2666.4953    3905.8957 
   26400    295.82429   -1470.1406    7.6094198    2710.2413    2362.8014    5635.2856 
   26500    316.76965   -1470.1584    8.1481925    3220.2999    3723.7561    5975.0791 
   26600    319.36606   -1469.2432    8.2149795    3486.0406    5681.4044    4803.1417 
   26700    284.02924   -1470.3794    7.3060186    2670.5453    1957.6163    6110.5939 
   26800    257.90361   -1470.8983    6.6339948    2850.4527    4243.2457    4396.0233 
   26900    298.43393    -1471.843    7.6765471    3440.1666    4843.3175    5309.7526 
   27000    266.22889   -1470.3683    6.8481442    2909.1262    2704.6719    6038.8328 
   27100    289.71509   -1470.2918    7.4522744    3646.1692    5442.2124    5439.2142 
   27200    297.99819   -1470.9606    7.6653384    2441.6606    3909.5995    3595.9515 
   27300    319.32744   -1470.2735    8.2139858    3217.3897    4062.0377    5593.4236 
   27400    291.76218   -1469.7355    7.5049311    2524.5835     3941.197    3776.2629 
   27500     316.8574   -1469.7177    8.1504497     3286.625    4721.9234     5110.915 
   27600    299.70201   -1470.0835    7.7091656     2454.834    5105.0756    2167.0395 
   27700     288.1265   -1469.9776    7.4114114    1632.2966     3315.723    1719.4951 
   27800    300.01615   -1470.1013    7.7172461    1819.6238    4001.4831    1512.1678 
   27900    324.17654   -1470.1958    8.3387182    2889.1056    5470.8622    3049.7395 
   28000    336.37412   -1469.8787    8.6524737    2539.0512    5189.3311     2448.953 
   28100    319.16564   -1469.6041    8.2098239    2018.5627    2078.0076     4073.672 
   28200    316.89243   -1469.8789    8.1513508    2108.5346    2248.8115    4100.3111 
   28300    284.37314    -1469.712    7.3148645    2998.6918    3032.9796    6112.9962 
   28400      303.615   -1470.0206    7.8098183    3722.7546    4601.0311    6636.8233 
   28500     317.1313   -1469.5364    8.1574952    3069.3492    3877.0118    5188.7457 
   28600    296.22116   -1469.9989    7.6196286     2637.252    2020.1643    5980.4597 
   28700    282.85832   -1469.9433    7.2758993    2767.1329    2409.9112    6030.5053 
   28800     278.1521   -1470.0507    7.1548422     2451.882    3597.9254    3788.9085 
   28900    302.27372   -1470.6926     7.775317    2488.0155    3632.4748    3612.8154 
   29000    303.28736   -1470.4336    7.8013907    2271.7348    818.82161    6012.5327 
   29100    278.91815   -1470.5544    7.1745471    2211.9333    1954.6013    4819.3411 
   29200    306.59447   -1470.4206    7.8864587    2825.4989     4678.907    3559.8384 
   29300    304.59843   -1470.0741     7.835115    2865.2923    4612.6479    3852.9244 
   29400    324.16572   -1470.2165    8.3384399    2727.6444    5174.0391    2811.9495 
   29500    313.25886   -1470.8342    8.0578852    1984.6845    4049.2091    1968.3764 
   29600    300.99973   -1469.5096    7.7425465    2493.1745    2349.6754    5125.4246 
   29700    294.01207   -1470.6677    7.5628045    2588.3003    2593.2131    5188.1384 
   29800     279.6347   -1469.9566    7.1929787     2557.422    3761.4183    3920.2468 
   29900    292.79115   -1470.4442    7.5313991    2366.3789    4325.8218    2935.8054 
   30000    331.20828   -1469.9107     8.519594    3466.6164    5835.6912    4574.7371 
   30100    316.40989   -1470.4404    8.1389384    2585.3579    4641.5088    3152.7301 
   30200    302.83824   -1469.4447     7.789838    3010.7222    6078.1502     3135.004 
   30300    274.14149   -1470.4886    7.0516782     2983.664    6057.4164    2667.2581 
   30400    293.42837   -1470.4639      7.54779    2961.6925    4935.3304    3956.8692 
   30500    289.36292   -1469.9514    7.4432154    1751.2438     3024.541     2547.123 
   30600    329.26153   -1470.3034    8.4695181    2283.5115    3569.4782    3357.1229 
   30700    273.61054   -1469.2625    7.0380208    2606.1144     4021.091     3994.818 
   30800    270.24397   -1470.2091    6.9514232    2109.7995    3033.3684    3349.0576 
   30900    292.97893    -1470.245    7.5362293    3139.0376    5001.4835    4376.4248 
   31000    300.91644   -1470.6244    7.7404039    3358.0993    7064.4113    2801.0188 
   31100    286.64016   -1470.4471    7.3731786    2693.5495    6564.9554    1474.6364 
   31200    285.47332   -1469.7796    7.3431641    2584.3354    6421.5182    1496.6969 
   31300    288.35964   -1470.6497    7.4174083    3199.3529    4779.7563    4729.3964 
   31400     313.3361   -1470.3732     8.059872    2271.4691    3075.8203    3598.1679 
   31500    275.27961   -1470.2895    7.0809538    2562.6501    3814.5494    4042.2818 
   31600    257.71378    -1470.279     6.629112    2322.6647    3105.2594    4008.6513 
   31700    270.45455   -1470.1508    6.9568399    2720.3623    4188.7667    4191.2484 
   31800    312.52076   -1470.8557    8.0388993    3215.7406    4272.7449     5385.395 
   31900    306.09949   -1470.3637    7.8737264    3501.3971    6014.8561    4426.6497 
   32000    289.38696   -1469.6632    7.4438338    3398.1946     4989.817    5197.6349 
   32100    312.89035   -1469.4535    8.0484063    2831.8886    3303.9274    5185.3767 
   32200    286.39142   -1469.7983    7.3667802    1488.0075    2290.7199    2305.5973 
   32300    299.37063   -1470.1223    7.7006414    2290.3359    3009.5829    3779.0853 
   32400    316.74822   -1470.5624    8.1476414    2281.4459    2200.1442    4624.5004 
   32500    316.00069   -1470.0593    8.1284127    2996.8062    3933.7642    4890.4468 
   32600    301.70081   -1470.3391    7.7605801    3304.7297    5369.1235    4513.6402 
   32700    292.46513   -1470.3167    7.5230129    2608.1607    3361.9138    4373.9333 
   32800    298.26431   -1469.6055    7.6721838    2192.4601    2857.1859    3768.3894 
   32900    293.48379   -1469.3992    7.5492157    2878.2955    3878.2604    4660.0507 
   33000    294.29367   -1470.2077    7.5700479    2070.8975    2671.9912    3533.8111 
   33100    319.39989   -1470.5085    8.2158497    1506.9052    1889.7706    2655.7508 
   33200    305.48504   -1470.3459    7.8579211    1852.9704    1267.5726    4356.2387 
   33300    280.10481    -1470.377    7.2050712    3320.8596    4679.3653    5177.8726 
   33400    319.54209   -1470.2937    8.2195074    2969.9343    4540.2504    4280.7313 
   33500    294.27766   -1470.6323    7.5696364    2380.7795    2641.7401    4591.1506 
   33600     322.6182   -1470.3225    8.2986333    2565.9678    3752.9416    3855.7588 
   33700    323.83782   -1469.6902    8.3300054    1802.5013    3099.4819    2469.6876 
   33800    295.59201   -1470.0769    7.6034449    2633.5811     4275.681    3566.8267 
   33900    291.66495   -1470.9896    7.5024301    2971.2049    4601.6557    4135.5467 
   34000    313.50698   -1470.0843    8.0642676    2435.0175    2531.1638     4865.481 
   34100    277.55333   -1469.8412    7.1394401    2082.9152    3752.5053    2786.3573 
   34200    295.00339   -1469.4864    7.5883039     1564.552    4655.1363    198.16812 
   34300    301.49412   -1469.7549    7.7552636    1707.1238    7624.9352   -2530.4929 
   34400    327.35276   -1469.7744    8.4204194    2966.0089    5726.2378    3045.4524 
   34500    303.53608   -1469.7019    7.8077885    1929.0143     5214.615    529.87647 
   34600    288.00302   -1470.0302    7.4082351    2277.9309    5872.4344    808.91788 
   34700    330.33704   -1470.3348    8.4971834    2851.8338    4788.1391    3581.3055 
   34800    299.03033   -1469.4352    7.6918881    2357.4146    3608.3313    3655.2152 
   34900      321.594   -1469.9361     8.272288    1261.0103    451.32851    3361.1432 
   35000    310.03414   -1469.3447    7.9749365    3303.3205    4476.1179    5307.1247 
   35100    294.54683   -1470.2819      7.57656    3112.6167    5458.5132    3805.4348 
   35200    289.82539   -1470.1299    7.4551116    3397.4432     5922.836    4240.2874 
   35300    284.37108   -1469.9372    7.3148116    3042.6609    4939.3937    4309.2341 
   35400    309.59156   -1470.2513     7.963552    2269.0995    4311.7005     2523.827 
   35500    319.07618   -1470.1078    8.2075228    2647.6416    4577.1556    3311.8426 
   35600    283.85617   -1470.1716    7.3015667    3862.4622    5598.7546    5964.6259 
   35700    295.18138   -1470.2475    7.5928824    3635.0679    6669.9587    4204.6778 
   35800    285.39511   -1470.4552    7.3411525     3504.338    4762.4959    5806.8728 
   35900    275.67763   -1470.0961    7.0911919    3290.1636    4224.8657    5481.8865 
   36000    283.77979    -1469.999     7.299602    2699.2144    4555.6298     3556.036 
   36100    314.68957   -1469.6228    8.0946871     3431.161    3903.7106    6323.3786 
   36200    305.62749   -1469.4437    7.8615853    2619.7228    5419.5145    2323.8914 
   36300     327.0263   -1469.8597     8.412022    2173.5646      4797.43    1882.9724 
   36400    321.17421   -1470.0895      8.26149    2841.6677    4126.2906    4426.5383 
   36500    314.68602   -1469.4511    8.0945957    2355.5816    4341.8582    2775.1526 
   36600    326.29553   -1469.1461    8.3932246    2009.4274    2502.6997    3633.3611 
   36700    324.95486   -1469.5449    8.3587388    2734.9928    2252.6125    5834.8801 
   36800     295.7549   -1469.8051    7.6076349    2800.2462    3922.8725    4585.1658 
   36900    298.80266    -1469.778    7.6860318    2867.2695    4030.5557    4624.2669 
   37000    274.79402   -1470.1956    7.0684631    2984.6381    4349.2192    4531.2161 
   37100    289.47257    -1470.706     7.446036    2646.9688    2891.8911    4979.4478 
   37200    317.27799   -1469.8955    8.1612685    2080.5906    1398.0967    4913.2195 
   37300    322.96985   -1469.6889    8.3076787    2392.6168    1261.2807    5941.5216 
   37400    317.01726   -1470.3625    8.1545616    2041.6041    2461.0044    3681.3089 
   37500    296.20351   -1470.2914    7.6191745     1627.606    1622.1616    3046.4066 
   37600     306.2996   -1470.5874    7.8788737     2435.532    3687.1391    3652.6674 
   37700    304.77592   -1469.7944    7.8396805    3246.7838    2978.7074    6710.9539 
   37800    318.12558   -1470.6826    8.1830709    2319.2427    3190.9357    3735.5935 
   37900    331.79662   -1470.0089    8.5347279    2893.2347    4080.6455     4456.673 
   38000    309.92613   -1469.5351    7.9721581    1991.8804    4682.5164    1378.1779 
   38100    319.59898   -1469.3472    8.2209708    2638.1978    5012.1043    2870.0986 
   38200    306.80779   -1469.6076    7.8919458    2904.4264    4300.4071    4364.4698 
   38300     299.7184   -1470.0088    7.7095871    1848.1174    3291.8344    2373.8619 
   38400    323.03068   -1470.0608    8.3092434    3180.4055    4936.7319    4427.0637 
   38500    293.12851   -1470.7599     7.540077    2970.2784    4818.2658    4110.2068 
   38600    308.08922   -1470.5664    7.9249079    2575.2311    4336.0569    3297.3307 
   38700    294.75147   -1470.8534    7.5818239    2129.8754    2232.8617    3961.7446 
   38800    306.13655   -1470.2865    7.8746796    1947.6352    295.35662    5493.1509 
   38900     306.2358   -1470.2307    7.8772328    2313.4515    4140.5298    2759.1178 
   39000    298.56144   -1470.4502    7.6798268     3102.811     3659.575    5581.7889 
   39100    296.69192   -1470.0915    7.6317378    2792.3614    3667.1093    4548.8005 
   39200    318.52602   -1469.9242    8.1933711    3505.4501    5080.8182    5310.6373 
   39300    291.12535   -1470.0438    7.4885502    2942.9746    4432.3963    4522.9348 
   39400    324.19046   -1470.9692    8.3390762    1988.2128     3083.001    2783.3981 
   39500     284.9881   -1469.3471    7.3306831    1579.3951    1926.2333    2787.7994 
   39600    288.08401   -1469.6714    7.4103185     2605.634    5027.5245    2899.4267 
   39700    308.97163   -1470.9613    7.9476059    3013.8307    3426.7278    5405.6796 
   39800    303.56374   -1470.6032    7.8084998    3365.0931    4505.6359      5541.92 
   39900    280.33395    -1470.548    7.2109655    3594.8839    4813.3185    5851.3126 
   40000    300.50552   -1470.6222     7.729834    2956.1456    4985.8489    3913.8788 
   40100    306.42325   -1470.7532    7.8820544    2616.8321     4989.396    2779.1682 
   40200    314.68689     -1470.01    8.0946182    2403.5832    5862.0812    1337.3317 
   40300    312.14673   -1469.2488    8.0292781    2998.7931    5915.2474    2974.2847 
   40400    280.90803   -1469.8059    7.2257324    2956.8741    4725.0164    4050.7688 
   40500    295.04107   -1470.4507    7.5892732    2242.9028    3381.9306    3457.0486 
   40600    298.95276   -1471.2153    7.6898929    2600.9762    4135.2383    3488.3763 
   40700    251.57482   -1470.6092    6.4712009    2340.4008    4242.9016    2888.1852 
   40800    312.73344   -1470.4235      8.04437    2683.3988    2935.5169    5024.8341 
   40900    292.55321   -1470.5695    7.5252786    2325.0122    2504.4843    4633.1436 
   41000    263.94919   -1470.7518    6.7895039    2677.7522    3822.9709    4201.1224 
   41100     294.0137   -1469.8932    7.5628465    2751.7299    3851.9644     4478.156 
   41200    292.90062   -1470.1405    7.5342149     2052.618    2185.0691    3862.0111 
   41300    339.34683    -1469.843    8.7289401    2104.2803    2147.4937    4038.2597 
   41400    298.17636   -1470.2594    7.6699216    2870.8018    4602.8965    3884.5915 
   41500    290.62714   -1471.0523    7.4757347    2292.4341    3774.2505    3150.6022 
   41600    305.63297   -1470.5119    7.8617263     1797.067    3860.1268    1657.1738 
   41700    257.81424   -1469.9703     6.631696    2965.5457    3269.8915    5786.9176 
   41800    300.32743   -1470.9887     7.725253    3312.7448    5292.3522    4497.9851 
   41900     302.6194   -1471.1801    7.7842089    2892.9443    5002.6958    3614.3478 
   42000    278.91908    -1470.058     7.174571    1748.7173    4828.1119    455.68511 
   42100    292.73097   -1470.1408    7.5298511    1294.9971    4570.9556   -769.98395 
   42200    324.08419   -1470.3182    8.3363426    3437.0733    5366.9886    4824.5634 
   42300      322.719   -1470.4775    8.3012262    3725.9276    5636.0465    5260.8277 
   42400    285.52024   -1470.0358     7.344371    2608.8067    4838.2605    3081.2665 
   42500    275.03295   -1469.7018    7.0746089    2794.2357    5171.5229     3230.966 
   42600    311.47719   -1470.7703    8.0120558    2571.8089    3584.4906    4061.2105 
   42700    274.93852   -1469.8734    7.0721801    2735.7105    3298.9277    4979.6294 
   42800     294.0678   -1471.0034    7.5642381    2772.1483     5370.662    2980.2252 
   42900    283.67709   -1470.7214    7.2969601    2688.2993    4979.1285     3093.853 
   43000     325.0047   -1469.2156    8.3600207    3073.3787    4600.0858    4768.5464 
   43100    302.77309   -1469.6735    7.7881621    2524.7461    3725.5916    3986.6054 
   43200    302.25146   -1469.5752    7.7747444     2818.011    5007.3763     3474.841 
   43300    307.18188   -1469.9573    7.9015684    2951.1236    5830.0002    3137.2792 
   43400    327.66695   -1470.2953    8.4285013    3002.0257    5319.0442    3621.3912 
   43500    291.15617   -1470.4524    7.4893429    2440.5573    3628.8836    3597.3037 
   43600    284.00644   -1469.5967    7.3054321    3018.6381    2999.8838    6137.4669 
   43700    318.84931     -1470.46     8.201687    3264.3762      4348.41    5460.7493 
   43800    314.32545    -1469.624     8.085321    3024.0899    4796.3277    4396.5221 
   43900     350.5558   -1470.3764    9.0172658    2740.6411     4100.127     4035.435 
   44000    287.57686   -1470.0412    7.3972732    2548.8593    3391.7032    4282.5054 
   44100    303.70296   -1470.0877    7.8120811     2396.279    3197.3713    4088.8577 
   44200    293.17573   -1470.8663    7.5412914    3072.3042    3597.5428    5433.2397 
   44300    313.87257   -1470.1697    8.0736717    2763.9963    3873.5634    4395.9925 
   44400    282.00137   -1469.3521    7.2538562    3313.5198    5212.7034    4726.5816 
   44500    302.64976    -1470.035    7.7849898    3664.0109    5001.6616    5944.1486 
   44600    333.70784   -1470.0463    8.5838896    2012.2265     147.4975    6047.6999 
   44700    312.97548   -1470.3232    8.0505959    1529.0645    672.99709    4146.3918 
   44800    300.79982   -1468.9326    7.7374043    3098.7534     6483.394    2824.3973 
   44900    302.61183   -1469.9672    7.7840143    2804.5848    4358.7945    4100.0516 
   45000    293.65083   -1469.8651    7.5535123    2734.1976      5309.74    2788.8555 
   45100    285.12526   -1470.3154    7.3342112    2976.1475     4580.164    4509.7858 
   45200    296.45929   -1470.7193    7.6257537    3169.7329    4629.1462    4807.5421 
   45300    294.04998   -1470.4021    7.5637796    2569.3664    5147.6678    2664.2552 
   45400    322.42496    -1470.463    8.2936626    3829.9521     6409.629    4934.6032 
   45500    336.35453   -1470.5579    8.6519698    3175.2712    5776.7915    3624.2024 
   45600    317.75121   -1469.6485    8.1734408    3055.7011    4825.2196    4348.1558 
   45700    335.45949   -1470.6148    8.6289468    3705.7204     5406.361    5380.8238 
   45800    319.43449   -1470.0856    8.2167396    2735.5935    5186.8816     3082.547 
   45900    274.44228   -1469.3455    7.0594154    1690.3458    4323.1008    1023.2185 
   46000    284.60374   -1470.1938    7.3207963    2114.5289     6287.404    98.993991 
   46100    339.87877    -1470.226    8.7426231    2774.8734    5082.9097    3289.5063 
   46200    308.14689   -1470.5325    7.9263912    3318.5995    4590.1978    5324.5729 
   46300    292.14486   -1470.0464    7.5147747    3258.6229    5057.6514    4718.0157 
   46400    291.90369   -1470.6109    7.5085712    3182.4443    4737.5982     4805.091 
   46500    289.44184   -1470.8402    7.4452455    3110.7693    4539.1079    4721.8846 
   46600    275.75948   -1470.0872    7.0932973    2856.9945    4068.3521    4644.0134 
   46700    308.00665   -1470.1409    7.9227838    2766.5344    5046.2479    3103.3815 
   46800    297.88353   -1470.3739    7.6623893    2153.9932    4535.0058    1752.4206 
   46900    304.86558   -1470.9037    7.8419868    2100.9537    2794.4283    3616.8957 
   47000     294.3169   -1470.3552    7.5706455    3014.6681     4788.234    4262.3714 
   47100    268.86301   -1469.6395    6.9159012    2160.8998    2432.9331    4319.8131 
   47200    318.26189   -1469.8169    8.1865769     955.1726   -688.66032    3824.8086 
   47300    313.66973   -1469.8818     8.068454    1917.4497    2068.7048    3722.3538 
   47400    283.70762   -1470.3005    7.2977455    2576.0501    3729.2027    4053.1485 
   47500    277.89429   -1470.0564    7.1482106    2709.8118    5477.1867    2762.2539 
   47600    277.06753   -1470.0137     7.126944    2347.0945     4316.132     2791.442 
   47700    314.19833   -1470.6685    8.0820511    1697.6978    496.64302    4441.6863 
   47800    294.67601   -1470.2352    7.5798829    2042.0276    2772.1755    3231.3097 
   47900    313.01654   -1470.7758     8.051652    2749.5855    3020.0506    5127.6738 
   48000    286.09687   -1470.4823    7.3592036    3095.8272    3882.4946    5328.0229 
   48100    283.78824   -1470.1898    7.2998194    2762.0788    2231.5369    6238.5483 
   48200    273.48801   -1469.6845    7.0348689    2295.8275    1614.5018    5539.2979 
   48300    303.18756   -1469.6057    7.7988235    1363.9853    354.88929    3854.3878 
   48400    331.55828   -1470.3961     8.528597    2453.0546    3101.1944    4200.2597 
   48500    308.74895   -1470.7026    7.9418778    2975.3036    3987.6747    4896.0526 
   48600    315.87497   -1469.6945    8.1251789    2762.7691    5106.6919    3188.6709 
   48700    298.47342   -1470.0049    7.6775628    2191.8357    3899.4101    2757.2156 
   48800    291.31309   -1470.0495    7.4933793     2060.914    1852.0398    4264.9643 
   48900    292.46782   -1470.5745    7.5230821    2159.0874    2354.5723    4251.1947 
   49000    322.30474   -1470.2603    8.2905703    2984.1774    4414.4452     4430.951 
   49100    289.54424   -1470.1309    7.4478796    2585.3183    5024.9047     2757.146 
   49200    295.19324    -1469.287    7.5931874    2793.5742    3381.5335    5018.6045 
   49300    272.96482   -1470.1002     7.021411    2467.0475    3399.4398    4174.5885 
   49400    296.68281   -1470.7774    7.6315033    3755.8616    5392.4287     5767.791 
   49500    290.36247   -1469.6505    7.4689268    3195.3968    4778.3742    4797.6599 
   49600     315.6392    -1469.433    8.1191143    3049.9204    3637.8915    5507.8113 
   49700    286.66035   -1469.2771    7.3736978    3369.1496    5416.1299    4603.5457 
   49800    307.15555   -1470.4133    7.9008912    2623.2783    4029.7162    3770.2853 
   49900    296.44019   -1470.8128    7.6252624    1471.3188    83.177757     4298.904 
   50000    324.32855   -1470.3133    8.3426282     2349.296    115.84752    6915.3759 
   50100    297.46591   -1469.9504    7.6516468    2177.8459     2798.139    4015.3621 
   50200    296.90697   -1470.5925    7.6372693    2877.0092    4831.8776    3755.3268 
   50300    295.81843   -1469.3731    7.6092692    3317.8065    5177.7599    4687.8352 
   50400    293.25836   -1470.8848    7.5434171     3156.759    4555.3593    4889.1357 
   50500    275.27842   -1470.4337    7.0809232    3088.1675    4500.2293    4754.6378 
   50600    315.56179   -1470.3194     8.117123    2696.9894    3507.1016    4506.8033 
   50700    315.41819   -1470.7225    8.1134293    2491.4627    2817.4972    4582.0492 
   50800    287.59661   -1470.1821     7.397781    2897.3221    5491.4724    3186.8206 
   50900     344.4681   -1469.9919    8.8606734    3546.8943    6129.2653    4416.6969 
   51000    338.05647   -1470.0198    8.6957484    3801.7893    5124.0985     6126.867 
   51100    330.29672   -1469.5756    8.4961462     2891.811    4025.9103    4569.3506 
   51200    320.46573   -1470.0929     8.243266    1709.4461    929.85627    4182.5098 
   51300    279.79091   -1469.8054    7.1969969    2573.5222    2772.7892    4984.4672 
   51400    293.35425    -1470.478    7.5458836    2557.5936    5194.3348    2543.7106 
   51500     307.0345   -1470.7453    7.8977776    1650.8068    5064.7372    -110.8884 
   51600       302.92   -1469.8252     7.791941    2083.5984    2626.2511    3726.1419 
   51700    263.48143   -1470.5437    6.7774719    1922.5962    1593.9749    4304.5361 
   51800    299.06403   -1470.7628     7.692755    2472.6739     4698.668     2579.769 
   51900    289.73456   -1470.4188     7.452775    2759.8632    5826.3811    2431.7278 
   52000    292.57591   -1470.3974    7.5258625    3218.2604    5427.0899     4138.207 
   52100    296.44496   -1470.6479    7.6253852    2492.5866    2509.0978    5017.3139 
   52200    285.08674   -1470.3265    7.3332202    2232.4335    4987.2372    1777.5836 
   52300    287.88178   -1470.6704    7.4051165    1961.6098    4784.6923     1138.778 
   52400    268.63875   -1470.7493    6.9101324    2001.7132    3179.8433    2906.2033 
   52500    280.56454    -1471.315    7.2168967    2401.8075    6183.9392    853.37845 
   52600    290.07957   -1470.4218    7.4616498    2490.6043    6295.7176    1334.9738 
   52700    294.52725   -1469.6034    7.5760564    2480.6249    2275.5005    5051.6744 
   52800     300.2517   -1470.4113    7.7233051     2907.409    3310.9502    5186.6655 
   52900    316.19751    -1469.957    8.1334755    3234.3648    5749.3093    3998.6456 
   53000    275.26379   -1469.3217     7.080547     3248.783    5526.0132    4311.2938 
   53100    308.94973   -1469.5611    7.9470424    3126.0074     5500.484     3882.416 
   53200    306.23852   -1469.8281    7.8773027    2558.1703    3470.8216    4083.9629 
   53300    290.72301   -1469.7669    7.4782009    2267.5731    5232.8174    1775.9787 
   53400    326.56458   -1470.6282    8.4001452    3495.4327    5645.5438    4791.7969 
   53500    343.32914   -1469.7245    8.8313761    3066.6249      5154.65    4057.8385 
   53600    317.54538   -1468.8965    8.1681464    3144.4635    3428.9591    6262.0971 
   53700     307.2697   -1469.5109    7.9038275    3102.5492    3460.4998    5957.0106 
   53800     283.8664   -1469.0697    7.3018298    2519.1387    3403.2116    4345.7425 
   53900    325.87011   -1470.2839    8.3822816    1629.0064    1250.9415    3529.9521 
   54000    300.31517   -1469.5121    7.7249376    1854.0211    1340.1747    4563.4322 
   54100    306.19548    -1470.097    7.8761955    2239.5969    4862.2723    1890.4176 
   54200    298.46569    -1470.122    7.6773641    3093.4707    5303.0316    3913.3903 
   54300    283.73155   -1470.6427    7.2983611    2820.6669    3682.1651    4626.7341 
   54400    281.28999    -1470.108    7.2355575     2872.966    2475.1905    6221.7275 
   54500     303.5019   -1470.3518    7.8069092    3270.1222    6043.3129    3815.3333 
   54600     285.4929   -1469.5724    7.3436679    2331.9565    4967.8581    1963.6152 
   54700    289.68653   -1470.2195    7.4515396    2783.8653    3695.3234    4567.1139 
   54800    289.97045   -1470.6952    7.4588429      2399.17    3244.3733    3860.1903 
   54900    293.04781   -1470.0083    7.5380011    2327.2707    4110.1491    2944.8909 
   55000    288.97085   -1470.5906    7.4331305    2979.1149     5281.483    3670.1263 
   55100     274.6561   -1469.6239    7.0649153    3281.7307    5391.3635    4549.5276 
   55200    294.00703   -1470.5472    7.5626748    3324.1506    5249.3183     4653.009 
   55300    291.35621    -1469.591    7.4944883      3035.13    5415.0884    3703.5362 
   55400     283.4666   -1470.0774    7.2915459    2888.6142    5660.7407    3124.7684 
   55500    328.02291   -1471.4524    8.4376574    3394.7388    5466.4054     4429.107 
   55600    292.99583    -1470.819    7.5366639    2928.0962    4186.9529    4620.4113 
   55700    270.89902    -1470.574    6.9682729    3213.2643    5334.1878    4265.6618 
   55800    301.56219   -1470.8254    7.7570145    2909.3678    4871.0103    3819.7543 
   55900    285.80843   -1470.3614    7.3517842    2353.7839     5843.876    1242.8124 
   56000    315.93207    -1470.739    8.1266476    2858.2637    5616.9778    2839.4903 
   56100    317.80549   -1470.0615    8.1748371    2688.9411    3409.2554    4552.5691 
   56200    294.56988   -1470.1375     7.577153    2929.9209    4190.8371    4513.7393 
   56300    282.43079   -1469.6034    7.2649019    3240.0126    5548.1044    4332.9224 
   56400    298.07777   -1470.1075    7.6673855    2976.5616    5342.5929    3713.5837 
   56500    311.75105   -1469.9338    8.0191002    2492.9399    4318.7412    3131.2726 
   56600    297.50604   -1469.8748    7.6526791    2094.4468     672.2936    5767.9357 
   56700    310.28065   -1470.1578    7.9812775    2160.6339    2836.2107    3362.8622 
   56800     270.9454   -1470.4191     6.969466    2060.2801    2976.2629    3370.0883 
   56900     290.5879   -1470.3228    7.4747253    2968.1901    5237.6723    3700.8402 
   57000    273.30291   -1470.2893    7.0301076    2734.8012    4285.6626    4045.9959 
   57100    238.40871   -1470.5428    6.1325321    1786.2351    2900.6786    2621.5513 
   57200    290.31336    -1469.624    7.4676635    1544.8562    4350.2912    236.83027 
   57300    275.68365   -1470.1878    7.0913468    2418.0548    6151.8179    1158.3822 
   57400    282.87525   -1470.2684    7.2763346     2071.887    2544.3612    3726.9594 
   57500    334.00264    -1470.251    8.5914727    3218.1509    4005.2518    5347.9394 
   57600    308.12558   -1469.6509     7.925843    3545.6656    5484.1169    5080.5827 
   57700    270.23861    -1470.065    6.9512852    2699.3856    4863.8216    3485.1914 
   57800    298.79434   -1470.8537    7.6858177    2316.3489    4993.5311    2102.1241 
   57900    299.85673   -1471.1755    7.7131452    2215.7409     6940.136   -431.94895 
   58000    311.39627   -1470.3189    8.0099742    2455.5325    6409.9312    898.95628 
   58100    308.45948   -1469.4388     7.934432    2204.3997    3645.1718    3042.9264 
   58200    301.29862   -1470.0166    7.7502349    2115.4391    1441.6479    4933.1799 
   58300    302.78601   -1469.7177    7.7884945     2590.485     2402.391    5518.6065 
   58400    313.76422   -1469.4409    8.0708845    3382.9445    5007.9701    5073.2924 
   58500    270.15403   -1469.9145    6.9491098    2619.1459    3697.3769    4384.6217 
   58600    301.80092   -1470.3797    7.7631552    3186.8297    3833.4403    5594.2124 
   58700    282.42305     -1470.95    7.2647029    3074.2053    3656.1674    5507.1193 
   58800    279.07467   -1471.1361    7.1785732    2853.7693    3562.8128    5049.8726 
   58900    251.58702   -1470.0151    6.4715148    2301.1041    2910.5284    4116.5406 
   59000    314.67491   -1470.9947      8.09431    3055.6754    5274.1966    3685.1176 
   59100    321.61494     -1470.32    8.2728266    2848.8873    3623.8847    4937.3288 
   59200    293.92392   -1470.0746    7.5605371    2155.9954    2500.6596    4145.5317 
   59300    309.33808   -1470.8851    7.9570319    2681.8827    2654.9557    5315.7904 
   59400    308.08549   -1470.5862    7.9248119    3513.4333    4869.7671    5492.3639 
   59500    297.01738   -1469.9165    7.6401094    2367.5541     3630.747    3493.2535 
   59600    320.97241   -1470.4134    8.2562991    1983.2215    1979.2217      3796.69 
   59700    334.39134   -1470.5311    8.6014712    2438.0002    2917.8213    4249.6882 
   59800    302.38112   -1469.6772    7.7780797    2961.1015    4707.9016     4150.105 
   59900    300.47659   -1469.5341    7.7290899    2264.8664    5707.2005    1277.9865 
   60000    303.76659   -1470.3124    7.8137177    2673.9649    5797.1966    2240.5889 
   60100    295.89295   -1469.8788    7.6111858    2802.1123    4579.8586    3936.4396 
   60200    300.35879   -1470.0078    7.7260596    3545.0976    6238.8517    4418.4511 
   60300    295.38168   -1469.7945    7.5980347    2771.5246    5689.1322    2535.8759 
   60400    317.36425   -1470.2771    8.1634873    3392.4064    4979.2799    5198.8087 
   60500    314.97001   -1471.0701    8.1019008    3231.5285    4105.2187    5502.9957 
   60600    299.22839   -1470.9348    7.6969827    2719.9378    2574.6823    5591.2737 
   60700     295.1342   -1469.4128    7.5916689    3577.2371     3855.697    6667.5044 
   60800    322.17786   -1469.8684    8.2873065    3207.4144    4171.5352    5519.9989 
   60900    304.18505   -1470.5124    7.8244818    3645.0747    5509.3052    5206.4111 
   61000    293.20331   -1470.1944     7.542001    2441.2739    2546.1291    4779.0981 
   61100    302.29364   -1469.7194    7.7758293    2665.7636    2235.4208    5746.0112 
   61200     308.4198   -1470.1718    7.9334112    2591.0725    3538.1924    4233.6266 
   61300    298.00796   -1469.2826    7.6655899    2859.5146    3315.1929    5300.1204 
   61400    281.96895   -1469.3709    7.2530221    2843.1101    4895.4688    3802.0122 
   61500    282.91304   -1470.2721    7.2773068    2616.6143    4660.4292    3180.1843 
   61600    299.16234   -1470.4494    7.6952837    2016.7142     2264.929    3766.7812 
   61700    287.43342   -1470.0264    7.3935835    2788.1704    3272.1465    5240.3118 
   61800    326.43229   -1470.0965    8.3967422    2802.6015    4757.4009    3735.6217 
   61900    309.07129   -1469.2343    7.9501694    1625.6444    4649.8049     409.8631 
   62000    297.78394   -1469.5889    7.6598274    2070.0046    4729.5134    1577.7185 
   62100     299.5268   -1470.3351    7.7046587     2874.266    6116.3781    2485.9521 
   62200    296.73695   -1470.5878    7.6328959    2082.0478    4933.9967    1273.4668 
   62300    312.53917   -1469.9113    8.0393728     2476.241    5010.0177    2444.1091 
   62400     312.4228   -1469.8437    8.0363796    2637.5913    4358.0451    3626.3091 
   62500    290.01926   -1469.7471    7.4600985      2714.49    4854.9005    3438.9053 
   62600    316.54115   -1469.9345    8.1423148    3130.6789    3899.3999    5441.7033 
   62700    320.18979   -1469.6711    8.2361679    2557.4462    3479.5667    4208.7819 
   62800    314.13462   -1470.8954    8.0804123    2483.8895    2992.5289    4530.1767 
   62900    324.36694   -1470.5079    8.3436159    1713.0439   -223.05772     5198.985 
   63000    291.25234   -1469.7001    7.4918167    2474.0626     3174.778    4258.6555 
   63100    302.10686   -1469.9572    7.7710248    2540.0538    4069.0222    3562.0741 
   63200    316.91223    -1470.324      8.15186    3091.6211    3511.0315    5654.1518 
   63300    295.72522    -1469.498    7.6068716    1858.0629    3166.3092    2749.4414 
   63400    321.45809   -1470.2904    8.2687921    1199.4504    1997.6923    1753.0981 
   63500    297.29044   -1470.3116    7.6471333    2381.1072    3849.8548    3328.4373 
   63600    302.65966   -1469.8268    7.7852444    2378.0204    3637.1798     3382.224 
   63700    291.34106   -1470.3528    7.4940988    2823.5772    2804.9641    5701.9803 
   63800    304.33341   -1469.9149    7.8282981    2938.1208    5185.5149    3731.7248 
   63900    297.31978   -1469.7017     7.647888    2429.0409    3275.1131    3976.2514 
   64000    314.95364    -1470.449    8.1014798    2553.7782    3691.5091    3880.2301 
   64100    282.65982   -1470.2612    7.2707933    2249.2138    4551.7451    2242.8593 
   64200     304.0154    -1471.144     7.820118    2560.9885    2152.3093    5441.8422 
   64300    277.73312   -1471.1769    7.1440647    2009.4888    3114.7623    2977.6677 
   64400    270.72443   -1470.2303    6.9637821    2493.3726    3266.6271    4416.5096 
   64500    304.31126   -1470.4094    7.8277283    2008.5833    5012.2112     1156.556 
   64600    280.99347   -1470.1511    7.2279302    2837.7303    4794.6971    3721.5302 
   64700    314.11806   -1470.6814    8.0799863    2692.8109    4642.8485    3513.8602 
   64800    305.38738    -1469.373     7.855409    2353.5032    4029.9942    3089.3765 
   64900    312.82304    -1469.353    8.0466746    2771.6731    5041.1996    3281.7694 
   65000    292.49408   -1469.1708    7.5237575    2779.0788    4331.5144    4045.1577 
   65100     274.5878   -1469.7144    7.0631586    2662.9018    4082.8991    3904.8035 
   65200    297.01935   -1470.0365      7.64016    2325.7089    2573.4049    4311.1551 
   65300    331.91661   -1470.3731    8.5378142     2519.644    2943.9267     4429.295 
   65400    289.14097   -1470.1786    7.4375062    1831.6911    5136.3911    604.04153 
   65500    313.41235   -1470.6439    8.0618334    2319.9277    5344.6185    1536.3295 
   65600    297.00908   -1470.4838    7.6398959    1621.5995    4211.7268    728.63208 
   65700    292.53274   -1470.6441     7.524752    2422.0635     4421.022    2758.9031 
   65800    267.74556   -1470.3326    6.8871573    2891.1348    4016.3549    4508.2334 
   65900    278.48773   -1469.8239    7.1634754    2707.8698    2851.4584    5283.9373 
   66000      291.707    -1470.619    7.5035116    2831.3998     6172.996    2309.0432 
   66100    292.47063   -1470.2818    7.5231544    2529.7529    4569.9648    3007.8013 
   66200    275.82364    -1470.385    7.0949478    2198.3714    3137.9003    3605.3735 
   66300    278.38233   -1469.4855    7.1607643     3008.446    4944.1801     4203.394 
   66400    279.67848   -1470.5481     7.194105     2671.304    6128.8806    1948.7237 
   66500    294.76958   -1470.6705    7.5822898    2719.3421    7048.6862    1068.9744 
   66600    271.38841   -1470.8752    6.9808614    3258.9526    6030.1758    3766.0239 
   66700    289.27125   -1469.8456    7.4408575    3105.2945    4534.3972    4646.8605 
   66800    267.29765   -1470.0412    6.8756357    2416.2381    3468.4034    3925.0075 
   66900    274.37685   -1470.0404    7.0577324    2722.3669    3919.0099    4380.5855 
   67000    276.90461   -1470.7797    7.1227533    2381.2175    3201.3789    3965.6221 
   67100    278.31371   -1469.7784    7.1589993    2540.3979    3966.4136    3714.8669 
   67200    267.35985   -1470.2306    6.8772356    2588.4624    3877.6199    4029.9956 
   67300    293.93429   -1470.1555    7.5608039    3112.9246    4780.9524     4561.812 
   67400    299.19852   -1470.0895    7.6962143    2336.4756    5015.0985    2009.9962 
   67500    294.51406   -1470.4085     7.575717    2549.4074    1857.3526    5834.6656 
   67600    282.78951   -1469.5864    7.2741292     3094.628    4224.5238    5199.3921 
   67700    316.83826   -1469.3161    8.1499574    2764.6409    2827.0186    5599.8601 
   67800    288.82106   -1469.3375    7.4292774    3008.5298     5068.751     3951.025 
   67900    325.06248   -1469.8172    8.3615071    3081.7489    5135.7871    3894.8538 
   68000    317.41366   -1470.1927    8.1647583    2455.0528    2754.4616    4507.0024 
   68100    286.73778   -1469.9159    7.3756896    3511.9513    6211.3785    4189.1305 
   68200    297.14117   -1470.1496    7.6432935    3366.5273    4393.6638    5587.3969 
   68300    296.36088   -1470.6947    7.6232224    2670.3386    3048.3757    5040.9022 
   68400    277.14173   -1470.6251    7.1288526    2418.8479    2411.5803    5040.9595 
   68500    290.69628   -1470.2422    7.4775133    2920.0999    5742.2066    2969.7669 
   68600    296.83433   -1469.7257    7.6354008    2048.6164    1744.4462    4537.5199 
   68700    275.11318   -1469.9257    7.0766728    1616.2969    600.40472    4351.8009 
   68800    306.48675   -1470.5705    7.8836877    1503.2576     593.3101     3931.422 
   68900    289.05283   -1470.4972    7.4352391     1461.618     2189.285    2457.9973 
   69000    280.86409   -1469.7583    7.2246021    2077.1543    4708.3214    1640.0402 
   69100    308.56746   -1470.5461    7.9372095    3158.1619    3172.0919     6236.923 
   69200    312.01994   -1470.6152    8.0260168    3238.3922    4115.8893    5455.6374 
   69300    293.08959   -1469.8171    7.5390757    3011.8017    4012.6758    5172.3024 
   69400    297.57271   -1469.7567     7.654394    2720.8185    3157.2427    5030.0714 
   69500     324.9166   -1469.2125    8.3577545     3044.756    5079.5955    4103.0488 
   69600     310.4709   -1470.3263    7.9861711    3411.5022    6616.8177     3403.841 
   69700    301.12997   -1470.5611    7.7458967    2706.1155    5073.3538       2989.3 
   69800    306.75488   -1470.3219     7.890585    1978.4168     4444.826    1467.0088 
   69900    325.39937   -1470.2092    8.3701727     2424.104    3827.4789    3378.4562 
   70000    304.85692   -1469.6359     7.841764    2765.8422    4958.7608    3357.4869 
   70100    321.45652   -1470.2544    8.2687518     3348.456    6234.9793     3842.821 
   70200     301.9096   -1469.4101    7.7659508    2205.7363    2666.9238    3967.5089 
   70300      297.913   -1469.5825    7.6631472     1918.157    2986.4764     2860.801 
   70400    319.67305   -1469.2869    8.2228761     1927.863    1650.3198    4349.9408 
   70500    311.16336    -1468.905    8.0039832    3238.2838    4954.1511    4794.5359 
   70600    329.15541   -1470.0533    8.4667885     3238.111    5380.6466    4189.4692 
   70700     300.7978   -1470.0331    7.7373524    3321.3612    5188.0295    4787.8853 
   70800    309.14685   -1470.1032    7.9521129    2894.4801    4628.1306    4059.1874 
   70900    301.60478   -1469.8173    7.7581101    1616.9224    1919.5693    3015.1965 
   71000    292.10236   -1469.1249    7.5136814    2076.7692     2341.099    4074.3434 
   71100    304.52821   -1469.3876    7.8333087    3532.4805    5430.1935    5374.9887 
   71200    315.08109   -1469.5383     8.104758    3153.2665    4607.4774    4958.9439 
   71300    309.68111    -1469.527    7.9658555    2944.8254    3586.9829    5220.5629 
   71400    319.83022   -1470.1104    8.2269188      1929.84    3307.4548     2628.359 
   71500    307.19278    -1470.235    7.9018489    3021.4174     3960.839    5012.1738 
   71600    299.89331   -1469.8058    7.7140864     3063.747    3293.8756    5893.9178 
   71700    299.39349   -1470.0192    7.7012294     3176.219    4372.7172    5209.9108 
   71800     294.6356   -1470.1839    7.5788435     3095.501    5282.9098    4015.9735 
   71900    306.51161   -1469.3492    7.8843274     3416.168    4591.9075     5627.503 
   72000    305.89586   -1469.6077    7.8684885    3052.0506     3156.681    6103.6886 
   72100     313.9327   -1470.4459    8.0752183    2240.7053    2086.8514    4438.8729 
   72200    287.07022   -1471.2681    7.3842409    1890.3357    1629.2959    3948.9734 
   72300    318.82068   -1469.5386    8.2009506    3522.1482     6138.083    4315.6913 
   72400    317.56197   -1469.5407    8.1685731    2415.7451    5170.2596    2211.4584 
   72500    323.46883   -1470.5568    8.3205139    2358.7444    3024.0882    3905.8095 
   72600    307.44649   -1469.7882     7.908375     2661.611    4034.6807    4011.3125 
   72700    282.35384   -1469.1641    7.2629225    3253.0247    6153.9355    3835.8688 
   72800     335.6943   -1470.6393    8.6349869    3346.8513    4754.9779    5171.2699 
   72900    331.22351   -1469.7437    8.5199857     2895.573    2823.4423     5795.787 
   73000    323.81389   -1469.7221      8.32939    2347.9448    3620.7913    3455.3583 
   73100    297.14562   -1469.7445    7.6434082     2487.342    2637.4248    4946.2234 
   73200    284.68142   -1469.1744    7.3227945      1906.14    1120.2684    4586.5347 
   73300    315.77993   -1470.5368    8.1227342    1764.8813    1745.1748    3513.9622 
   73400    306.11944   -1470.7149    7.8742396     2810.235    4164.3833    4185.4436 
   73500    278.13174   -1470.3596    7.1543184    3073.1581    3370.0606    5844.8018 
   73600    307.46721   -1469.8285    7.9089081    2697.0311    2359.9248    5705.6748 
   73700    344.04253   -1469.8009    8.8497264    2858.8057    3592.4943     4817.982 
   73800    349.10153    -1470.622    8.9798579    3635.4256    5257.0716    5286.4921 
   73900    304.99513   -1470.2627    7.8453192    3245.0702    4273.7758    5448.2031 
   74000    287.20242    -1470.044    7.3876416    2550.6418     2743.844    4893.5304 
   74100    284.52923   -1470.3773    7.3188795    2626.1969    4593.8758    3337.0183 
   74200    345.18283   -1470.0807    8.8790582    3181.1683    3972.2389    5431.1023 
   74300    310.46103   -1471.1791    7.9859173    3495.4729    3934.0416    6289.3332 
   74400    274.90678   -1470.0061    7.0713634    3134.1835     4605.472    4942.5832 
   74500    312.96578   -1470.3488    8.0503464    3496.6168    3865.8568    6517.4741 
   74600    325.47537   -1470.5067    8.3721277    2731.7178    4954.2414    3251.0486 
   74700    315.20319   -1469.7604    8.1078989    1838.6537    4336.7131    1157.0531 
   74800    308.34926   -1469.8305    7.9315967    2339.7284      3260.65    3645.3403 
   74900    298.97714   -1469.8075      7.69052    2426.7017    2780.8978     4542.228 
   75000    295.79363   -1470.6259    7.6086311    2876.2884    4171.1842    4404.6177 
   75100    287.15431   -1470.6282    7.3864039    2885.6487    4167.7399    4467.6964 
   75200    309.91274   -1469.9817    7.9718137    2445.7153     3264.528    4049.2792 
   75300    277.08818   -1470.3461    7.1274752    2599.0751    3561.9451    4239.2055 
   75400    323.04052   -1469.8959    8.3094966    2312.4981    4083.2905    2680.3823 
   75500    304.35379   -1469.8188    7.8288222    2063.6621    5285.8874    1065.7898 
   75600    295.50381   -1470.0664    7.6011762    2167.0798    4921.3047    1708.8063 
   75700    294.44217      -1469.3    7.5738678    2365.3322    4395.9892    2856.6436 
   75800    307.33877   -1470.3458    7.9056043    2506.6465    3276.9613    4156.3125 
   75900    287.83522   -1470.8679    7.4039188    2078.3006    1193.1806    5195.5191 
   76000    277.03459   -1470.8845    7.1260967    2072.7217    2942.8047    3339.9784 
   76100    261.38496   -1470.6345    6.7235449    2260.9399    1418.3782    5410.9056 
   76200     296.4015   -1470.6393    7.6242673    1804.6487    1872.9887    3740.2088 
   76300    293.37284   -1469.8606    7.5463617     2354.763    4230.5394    2765.3788 
   76400    310.21421   -1470.7662    7.9795685    2369.9222    2786.0377    4236.8173 
   76500    306.20972   -1469.5731    7.8765618    3811.8918     6172.428     5085.726 
   76600    306.50295   -1470.5785    7.8841046    2929.8245    3464.2985    5466.2642 
   76700    285.69971   -1470.0934    7.3489875    1273.4075     2685.199    1307.1623 
   76800    301.94268   -1470.4399    7.7668018    2280.2206    3489.1196    3406.0381 
   76900    267.90833   -1470.1851     6.891344    2573.8321    4421.9411    3381.6449 
   77000    286.21677   -1470.1443    7.3622877    2814.7179     5597.999    3003.0856 
   77100    290.73503   -1470.6289    7.4785099    3253.1579    4485.4567    5247.5507 
   77200    274.57202    -1470.263    7.0627527    3058.5438    3396.4393    5790.1033 
   77300    296.66012   -1470.7493    7.6309198    2217.9072    4054.6316    2564.3833 
   77400    291.82996   -1470.2503    7.5066746    1816.1709    1112.2204    4449.3445 
   77500    300.47747   -1470.2398    7.7291126    2465.3677    3674.0221    3643.7348 
   77600    283.66186   -1470.1574    7.2965684    2650.8362    4080.3749    3898.8533 
   77700    285.69056    -1470.176    7.3487524    2356.6256    2209.5443     4751.007 
   77800    293.47776   -1470.1386    7.5490607     2696.519    4153.6046    3974.4332 
   77900    277.28974   -1469.7785    7.1326599    2921.2388    5875.1559    2991.6871 
   78000    285.37468   -1470.9263    7.3406269    3424.6052    5644.1685    4659.7404 
   78100    299.98781   -1470.7537    7.7165171    3301.0572    5585.6543    4301.8877 
   78200    300.25368    -1469.906    7.7233559    2429.4082    3634.9658    3700.7112 
   78300    333.99156   -1470.3634    8.5911877    2393.6541    4007.1858    3095.3333 
   78400     310.7029   -1469.5582    7.9921388    2427.0186    4992.4404    2339.9292 
   78500    308.07437   -1469.6051    7.9245257    2120.5279    4291.6653    2082.5588 
   78600    270.18968   -1470.1373    6.9500267    2156.4782    5412.9132    1272.5235 
   78700     313.6347    -1469.672     8.067553     2983.624    4532.2068    4169.6553 
   78800    316.65214   -1470.2366    8.1451698     2642.857    3067.0928    4928.0899 
   78900    319.66392   -1470.7641     8.222641     3607.914    4887.3876    5774.4137 
   79000    295.34718    -1469.944    7.5971472    2296.2694    5001.8432    1912.8889 
   79100    288.96819   -1470.4703     7.433062    1999.5318    3972.6759    1973.8584 
   79200    304.33295   -1470.0095    7.8282862    2004.2599    3017.0189    2864.9981 
   79300    327.54936   -1470.5261    8.4254765    2117.8325    2754.7413    3657.5562 
   79400    325.25696   -1470.2731    8.3665096    2270.5932    2851.6937    3881.0307 
   79500    315.16017   -1470.4926    8.1067922    2105.9599    2221.5561    3944.7522 
   79600    287.30244   -1470.0509    7.3902141    2642.3621    3342.7612    4666.1706 
   79700    296.99804   -1469.8479    7.6396119    3213.5766    3671.7526    5975.8444 
   79800    300.96137   -1470.8899    7.7415597    3433.9943    4613.2948    5545.7507 
   79900    275.48731   -1470.0159    7.0862963    2770.7269    4228.3752    4345.2378 
   80000    287.37074   -1470.8086    7.3919711    3080.8369    3985.9631    5352.8379 
   80100    301.60459   -1470.8933    7.7581051     3478.825    4612.1764    5670.8545 
   80200    303.08553   -1469.8981     7.796199    3099.0821    4612.6615    4755.3284 
   80300    278.16651   -1469.9524    7.1552128    2628.8216      4661.23    3326.6599 
   80400    272.79143   -1470.8328     7.016951    2470.3734    4147.2228     3247.359 
   80500    319.28011   -1470.6399    8.2127684    2668.0471    2288.7967    5513.2692 
   80600    274.04791   -1470.3696    7.0492709    1908.0701    1901.2626    3962.3009 
   80700    334.71522   -1470.0094    8.6098024    1820.1136    2969.5769    2430.2732 
   80800    319.17052   -1470.8454    8.2099494    1941.4644    3434.7021     2553.844 
   80900    305.88866   -1470.5202    7.8683032    3296.4562    4903.5009    4890.1878 
   81000    302.23025   -1470.0618     7.774199    3505.0206    5643.3636    4894.5121 
   81100    295.64521   -1469.8695    7.6048135     2938.857    4792.8632    4016.4527 
   81200    292.17819    -1470.239    7.5156322    2974.1489    4319.2751    4592.1762 
   81300    285.82595   -1470.2552    7.3522348    2213.9084    3195.8253    3583.2855 
   81400    273.98357   -1469.2311     7.047616    2216.4036    3407.4368    3635.6458 
   81500    282.11893   -1470.2409      7.25688    3055.1309    3961.1588     5288.741 
   81600    303.49293   -1470.5179    7.8066785    3561.0073    4714.4018    5953.8603 
   81700    325.71568    -1468.959    8.3783092    2405.0113    2027.9418     5277.775 
   81800    323.48583    -1469.231    8.3209513    1728.0389    1229.1696    4043.0127 
   81900    289.04367   -1469.9144    7.4350034    2696.0544    4635.3507    3562.6814 
   82000    274.06127   -1470.4574    7.0496146    3150.3973    4008.6762    5523.2272 
   82100    274.66196   -1469.2008     7.065066    2989.0263    4646.1499    4382.8015 
   82200    308.27755   -1470.7233     7.929752    3243.8578    4609.9719    4881.9155 
   82300    329.29376   -1469.8764    8.4703473    2514.6832    1811.0132    5600.5071 
   82400    293.20378   -1470.5465    7.5420131    2100.3344    2650.7169    3740.0284 
   82500    301.71342   -1469.9905    7.7609046    2591.3493    3238.3493    4708.7129 
   82600    298.17284   -1469.8692     7.669831    3517.0625    3872.7342    6573.2678 
   82700    324.70882   -1470.5329    8.3524098    3391.8414    5832.9972    4330.5145 
   82800    285.67883   -1469.8394    7.3484506    2745.7004    5554.6077    2806.3772 
   82900    316.89433   -1470.8044    8.1513995    2543.2959    5442.8311    2101.5978 
   83000    299.23743   -1470.2499    7.6972153    2623.9502    5233.8906    2716.0375 
   83100    304.90025     -1469.57    7.8428788     2811.161     6686.836    1744.8942 
   83200     284.9469   -1470.3505    7.3296232    2925.9415    3830.1089    4987.9068 
   83300    294.91274   -1471.0859    7.5859722    3374.9073    5382.4057    4625.5771 
   83400     307.4019   -1469.8637     7.907228    2690.3349    5445.4288    2606.6609 
   83500    278.66486   -1469.7218    7.1680317    2473.5701    3454.8071    4029.4168 
   83600    310.70771    -1470.379    7.9922625     2554.138    4454.0259    3124.0934 
   83700    282.03674   -1470.1359     7.254766    2744.5618    4713.5534    3481.2264 
   83800    289.08841   -1469.5855    7.4361543    2657.4905    5057.9329    3061.3143 
   83900    304.66328   -1469.7956    7.8367832    2517.4341    2814.3202    4902.2613 
   84000    324.98215   -1470.4696    8.3594408    2585.7014    2358.5382    5285.9027 
   84100    268.90947   -1470.3186    6.9170962    3251.0809    5609.2929    4255.2688 
   84200    291.88364   -1470.1012    7.5080554    2844.7079    4074.2475    4571.9834 
   84300    312.67059   -1470.2422    8.0427533    3201.6803    4451.4999    4974.3785 
   84400    324.41457   -1470.0486    8.3448411    2379.3864    2912.4619    4184.6647 
   84500    313.35698    -1470.701     8.060409    3190.7005    4745.9806      4530.94 
   84600    313.53299   -1470.3026    8.0649367    2513.6964    4717.2789    2862.5573 
   84700    294.14656   -1470.3818     7.566264    2034.6527    1973.3156    4169.5951 
   84800    300.64087   -1470.6943    7.7333155    2684.3167    4195.7323    4013.9534 
   84900    298.72794   -1470.2405    7.6841099    2898.6029    4483.2602    4185.2295 
   85000    307.34977   -1470.1594    7.9058871    3024.6104    4182.5097    4754.1007 
   85100    318.85723    -1469.804    8.2018909    1674.2959    3189.3979    1921.8708 
   85200    300.18246   -1469.6715    7.7215239    1806.0181    1474.7091    4036.1221 
   85300    329.59269   -1469.5143    8.4780365    2364.5632    2367.3032     4814.718 
   85400    324.82064    -1470.148    8.3552862    2585.4645    3064.3008    4599.7254 
   85500    296.88024   -1469.7481    7.6365817    2123.9331    4081.5883    2419.8969 
   85600    297.15388   -1470.0928    7.6436206    2615.0866    5183.4343    2597.6397 
   85700    286.19198   -1470.5631      7.36165    3139.3538    5493.7784    3973.3222 
   85800    299.23688   -1470.0571    7.6972011    3121.9929    4847.6669    4593.5249 
   85900    318.02774   -1469.7508     8.180554     2568.482    3703.2817    4011.1885 
   86000    324.80931   -1470.5061    8.3549947     2198.602    4567.6923    1927.4819 
   86100    273.20543   -1469.8988    7.0276001    1773.8674    5187.6176    243.17795 
   86200    309.99599   -1470.5263    7.9739553     2968.503    5869.4296    2931.5594 
   86300    322.75945   -1470.7077    8.3022667    3580.8156    6150.0598    4430.7365 
   86400    300.81937   -1469.7753    7.7379072    2923.3155    4483.9255    4289.2958 
   86500    319.93466   -1469.7802    8.2296052    2471.0669    4054.9303    3312.7824 
   86600    338.23432   -1470.1813    8.7003232    3138.3394     4846.212    4533.8429 
   86700    308.94163   -1470.1956    7.9468341    2244.6009    4765.5931    1823.9533 
   86800    291.01936   -1470.4722    7.4858238    3074.0383    7168.2527    1958.5016 
   86900    300.46885   -1471.0178    7.7288908    3303.3227     6060.749    3748.1163 
   87000    308.28013   -1470.2536    7.9298185    3717.9619    5095.0244    5887.6832 
   87100    289.96496   -1471.0358    7.4587016    3342.4258    5989.4415     3951.758 
   87200    278.33487   -1470.1481    7.1595435    2910.7752    5401.0796    3409.7359 
   87300    270.10152   -1469.6986    6.9477589    1848.8266    3617.5324    2251.4451 
   87400     307.8905   -1471.4644    7.9197961    3169.1495    5276.9514    4079.0062 
   87500    281.71958   -1470.7494    7.2466076    3472.1263    5453.8386    5057.3371 
[...]
  136400    310.07795   -1470.2035    7.9760634    3561.8701     5447.511    5267.6495 
  136500    291.03221   -1470.1427    7.4861543    2840.9213     4305.537    4235.8821 
  136600    318.98154   -1470.2813    8.2050885    3317.7843    5400.0443    4587.8169 
  136700    338.94533   -1470.0106    8.7186124    2951.0694    4160.4064    4765.5972 
  136800    289.60377   -1469.7904    7.4494108    2491.0841    2451.7424     5164.789 
  136900    303.42683   -1470.1085    7.8049781    2106.8582    2310.7518    3966.1925 
  137000    317.54211   -1469.9404    8.1680623    2829.7837    4231.2027    4213.6991 
  137100    324.14226   -1470.0229    8.3378364    2456.8748     2979.797    4220.1748 
  137200    285.41806   -1469.2163    7.3417427    2291.1434    4134.3369    2794.2681 
  137300     316.4665   -1469.6382    8.1403946    2511.6104    6853.7742    563.10566 
  137400    292.22153   -1470.4334    7.5167468    2886.7681    5523.8241     3153.651 
  137500    265.60132   -1470.3144    6.8320012    2642.7073    3792.5131    4111.4091 
  137600    295.00812   -1470.2934    7.5884258    2021.1465    980.23262    5146.6357 
  137700    289.98067    -1470.252    7.4591057    2151.5334    2444.8428    4165.2295 
  137800    339.98618   -1471.3485    8.7453859    2300.6436    4198.2379    2466.7968 
  137900    295.26186    -1470.365    7.5949525    2345.1433    6077.2758    902.76652 
  138000     274.5937    -1470.878    7.0633103    2124.8897    4238.9365    2161.6043 
  138100    265.18135   -1471.0455    6.8211986    3078.0217    4203.4852    5112.7661 
  138200    270.95789    -1470.043    6.9697872    3651.2058     5638.294      5386.78 
  138300    321.96919   -1470.5398    8.2819391    3113.5751    3371.0523    6017.5475 
  138400    284.52336   -1469.8066    7.3187285    2875.3981    5244.0052    3480.8165 
  138500    284.04472    -1470.171    7.3064166     2559.194    2949.6119    4762.3454 
  138600     289.6763     -1470.83    7.4512764    2083.3491    1255.4724    5049.4349 
  138700    267.46413   -1470.6915    6.8799179    2299.3992    3465.9377    3434.1703 
  138800    291.92298   -1469.6697    7.5090674     1865.651    2442.5399    3112.0663 
  138900    277.80387   -1469.7745    7.1458847    2258.5975    3038.3565    3912.7056 
  139000    301.55278   -1469.9471    7.7567725    3323.4601     5693.409    4223.2346 
  139100    274.87491   -1469.9078    7.0705438     3513.529    5691.1437    4864.1599 
  139200    292.36691    -1469.315    7.5204865    2139.5122    4193.9763    2478.9661 
  139300    283.92839   -1469.4212    7.3034242    2388.2333     3658.061    3362.1779 
  139400    318.13775    -1469.695    8.1833837    3439.1817     6637.282    3565.5963 
  139500    302.78422    -1469.902    7.7884485    2108.1846    4690.4594    1691.4385 
  139600    321.50417    -1470.173    8.2699775    2191.2347    3888.5546    2818.2259 
  139700    297.14918   -1470.3735    7.6434996    3385.2839    4388.5397    5725.4502 
  139800    301.59033   -1469.7742    7.7577383    2862.8472    5124.2419    3539.6356 
  139900    305.50573   -1470.6403    7.8584534    3781.8182    5862.1648    5433.6018 
  140000    286.75672   -1468.9468    7.3761769    2883.8501    5612.9593    3004.0642 
  140100    299.67553   -1470.4543    7.7084843    2070.1765    6031.4005    204.12978 
  140200    304.48374   -1470.6342    7.8321647    1648.6698    3350.2288    1702.6323 
  140300    287.11982   -1470.7174    7.3855167    3024.8683    3593.1106    5447.5094 
  140400     301.6938   -1470.2242       7.7604    3185.1903    5638.2233    3964.8223 
  140500    303.66944   -1470.1012    7.8112188    2361.0166    5061.8684    2023.5398 
  140600    295.23062   -1469.4976    7.5941489    2039.5925    4138.7692    2095.7332 
  140700     291.8971   -1470.1037    7.5084015    1499.0786    3903.6752    549.14591 
  140800    296.48225    -1469.731    7.6263444    1579.0984     4197.602     750.4803 
  140900    315.23489   -1469.9794    8.1087141    1824.0585    3818.9578    1792.5319 
  141000     302.5666   -1469.9946    7.7828506    2299.2586    2608.6002    4216.0439 
  141100    318.65187   -1469.5351    8.1966085    1575.5389    2339.7792    2454.5395 
  141200    305.18115   -1470.6098    7.8501042    2802.2838    4274.0994    4187.8931 
  141300    308.92041   -1470.0067    7.9462882    2203.3102    3470.7134    3065.7654 
  141400    289.74655   -1470.0196    7.4530835     2863.966    2756.2566    5787.3348 
  141500    291.47438   -1470.6332    7.4975282    3301.3809    3653.5416    6140.6874 
  141600    307.30632    -1470.016    7.9047694     2578.053    2884.2538    4727.6335 
  141700    290.70746   -1469.9457    7.4778008    2170.4553    2159.3023    4552.2088 
  141800     304.8538   -1470.1511    7.8416837    2534.8243    3114.7809    4615.1266 
  141900    287.11886   -1469.3165    7.3854921    3368.7873    2778.5363    7177.5319 
  142000    333.41293   -1470.0831    8.5763037    2957.0834    3141.8776    5788.1173 
  142100    326.27261   -1470.5982    8.3926348    3558.6326    4480.8615    6027.1809 
  142200    287.29521   -1469.9637    7.3900283    2851.0333    5114.5277    3544.3266 
  142300     308.7791   -1470.2408    7.9426533    3185.6225    6182.5922    3238.8466 
  142400    277.83486   -1470.4478     7.146682    2574.1427    4766.7379    2962.3818 
  142500    299.37616   -1471.1112    7.7007836    3011.8165    4186.8209    4750.9848 
  142600    278.25426   -1470.1554    7.1574701    2792.1391    3663.5142    4673.3276 
  142700     295.6263   -1470.3531    7.6043271    2360.2024     4199.216    2884.0479 
  142800    302.97183   -1469.9098    7.7932744    3191.8362    4555.1187    4821.1298 
  142900    312.13429   -1470.1524    8.0289581    2811.3333    3033.8048    5370.7332 
  143000    307.61232   -1469.7625    7.9126407    2670.4097    3087.9232    4992.3081 
  143100    295.25614    -1469.509    7.5948055    2538.2503    3721.0308    3991.6377 
  143200    305.19735   -1470.8549    7.8505208    3240.7962    4715.1541    4890.6763 
  143300    294.94433   -1470.3603    7.5867848     3489.244     5899.573    4475.9564 
  143400    304.00592   -1469.8905     7.819874    2756.6756    3765.0575     4545.286 
  143500    317.49137   -1470.0538    8.1667571    3199.4882    4603.9354     4914.934 
  143600    315.27218   -1469.1904    8.1096734    2330.9568    3150.8117    3955.5516 
  143700    291.00693   -1470.0536     7.485504    2266.4957    4085.8685    2744.5817 
  143800    317.06066    -1471.089    8.1556782    2748.4283    5251.8667    2831.9261 
  143900     305.6461   -1470.4642     7.862064    2311.3216    2768.6816    4211.7438 
  144000    295.25079   -1469.7809    7.5946677     2153.076    2756.9145    3813.7031 
  144100    306.13631   -1470.1584    7.8746735    2098.7256    1855.7487    4437.2453 
  144200     284.9962   -1469.7538    7.3308914     2866.095    5177.0751    3354.2272 
  144300    296.29571   -1469.7709    7.6215461    2791.4329    3750.5853    4705.8442 
  144400    286.11818   -1470.4177    7.3597519    2839.8686       4144.7    4285.9685 
  144500    299.37104   -1470.1892    7.7006521    1978.2833     3858.666    2072.1558 
  144600     284.0622   -1469.2089    7.3068664    2525.9397    3573.6559    4255.4669 
  144700    317.27794   -1470.7472    8.1612671    2871.3949    3181.5258    5397.1013 
  144800    291.24631   -1469.8815    7.4916615    2648.2472    3918.6775    4096.4686 
  144900    278.21548   -1470.4256    7.1564724    3109.4496    5321.4588    4037.1658 
  145000    284.41386   -1471.1629    7.3159121    3118.8618     5711.243    3674.7461 
  145100     290.2074   -1470.3346    7.4649379    2354.8799    4706.7826     2083.687 
  145200    315.78396   -1470.7764    8.1228378    2712.2941    4863.5653    3023.0523 
  145300    308.85307   -1469.8904    7.9445562    2077.4306    1641.8522    4325.5814 
  145400    306.36547   -1470.1171    7.8805681    2722.1454    2737.1892    5458.7664 
  145500    289.04884   -1470.9777    7.4351366    3561.6394    6073.2146     4520.631 
  145600     256.8944   -1471.0163    6.6080351    3085.8513    6294.7777    3022.1286 
  145700    311.83701   -1470.6328    8.0213112    2171.8397    4016.9094    2369.7446 
  145800    298.68103   -1471.2273     7.682903    2503.4225    3131.5832    4279.8005 
  145900    295.69699   -1470.3755    7.6061453    3110.8904    3564.2798    5719.8212 
  146000    280.84087   -1470.5318    7.2240047    2573.9215    3518.1384    4371.5178 
  146100    317.66464   -1470.1497     8.171214    2481.6483    3304.6108    4201.8763 
  146200     294.8389    -1469.874    7.5840729    2534.6863    3485.6891    4166.0895 
  146300    315.23442   -1469.5655     8.108702    3104.6678     3497.625    5882.3288 
  146400    297.77555    -1470.725    7.6596117    3087.7813    5128.1147    4063.3173 
  146500    276.84476   -1469.4293    7.1212138    2684.4259    4593.5789    3382.7183 
  146600    281.65125   -1469.5025    7.2448501    2295.0031    3661.8208    3384.3511 
  146700    292.50061   -1469.4351    7.5239255    2966.5688    4944.4429    4061.5256 
  146800    279.55571    -1470.444    7.1909469    2339.0925    3929.3766    3053.0412 
  146900    309.13076   -1470.6801    7.9516992    2652.5992    1214.9765    6583.4321 
  147000    297.00732   -1469.5487    7.6398508    2617.5317    3356.8208    4547.2227 
  147100    295.39537   -1469.8709    7.5983869    2211.1325    3141.5636    3592.6587 
  147200    319.48862   -1470.3811    8.2181319       1666.1    1631.0096    3287.2461 
  147300    304.59212   -1470.4655    7.8349527    1836.8138    1973.6901    3726.0458 
  147400    280.09141   -1470.2738    7.2047267      2431.29    4528.7851    2939.9313 
  147500    302.49954   -1470.1733    7.7811257    2737.6774    4821.6016    3328.2462 
  147600    303.17755   -1471.6315     7.798566    2510.1974    3593.5561    3894.6474 
  147700    285.13115   -1470.0326    7.3343627    2609.3623    2141.0815     5738.142 
  147800    308.05904   -1469.3263    7.9241314    2615.0625    3125.9125    4722.7294 
  147900    307.09476    -1470.889    7.8993274     2485.165    3081.9505    4254.6734 
  148000    289.33614   -1469.7005    7.4425266    1786.9466    37.685474    5628.1583 
  148100    251.04324   -1469.2994    6.4575273    2458.1813    3564.6001    4015.1782 
  148200    312.95463   -1471.5115    8.0500595    2839.8915    2984.8908    5485.7241 
  148300    302.48871   -1470.1806    7.7808472     2613.824    3787.9127    4182.8505 
  148400    288.82602   -1470.1485    7.4294051    2050.7438    3166.5258      3094.59 
  148500    315.59971   -1470.4983    8.1180984    2802.3661    4507.9675    3856.2717 
  148600     276.3236    -1469.818    7.1078081    2762.1465    2830.2334    5468.4805 
  148700    279.89338   -1469.8723    7.1996327    2271.5978    2077.2898    4831.4473 
  148800    277.57253   -1470.6281    7.1399341    2584.1791    1903.5749    5727.6167 
  148900    297.78375   -1470.8926    7.6598225    2599.5801    2370.5974    5319.9018 
  149000    278.58797   -1470.2821     7.166054    2001.3261    2384.9119    3629.4429 
  149100     306.0262   -1469.5669    7.8718413    1811.0636    2161.5054    3230.2665 
  149200    335.32034   -1469.6838    8.6253676     2502.568    3418.9065    3916.9837 
  149300     313.1395   -1469.8988     8.054815     2949.325    3825.6762    4937.8427 
  149400    304.11335   -1470.4735    7.8226375    3136.9386    4528.1056    4826.0004 
  149500     304.9789   -1470.1475    7.8449018    2747.5986     4100.905    4333.1049 
  149600    282.13737   -1470.2773    7.2573544    2104.9849    4451.9511    1954.6442 
  149700    281.27618   -1470.5139    7.2352021    2519.9323    5450.1035    2306.0569 
  149800    296.66211   -1470.1688    7.6309708    2266.1735    4101.5718    2804.6371 
  149900    332.77379   -1469.6164    8.5598632    2278.7486    2472.4347     4447.481 
  150000    278.64878   -1469.5997    7.1676183     2507.325    3420.5777    4249.2554 
  150100     288.7049   -1470.1543    7.4262895    2373.3245    4078.4706    3108.9345 
  150200    283.63201   -1470.6567    7.2958005    3089.5451    4633.6257    4611.3254 
  150300    280.58023   -1470.3606    7.2173004    2003.4113    1825.9443    4361.0937 
  150400    299.97574   -1469.8937    7.7162066    1957.6764     1167.849    4770.6147 
  150500    303.37826    -1469.841     7.803729    2888.7941    3514.6594    5217.6172 
  150600    293.05657   -1470.0065    7.5382263    2983.1043    5357.1717    3511.4013 
  150700    315.55619   -1469.8544    8.1169788    1700.7056     4580.636    581.25717 
  150800    288.53433   -1470.2315    7.4219019    2109.7909    4669.5283    1664.0686 
  150900    283.46766   -1470.6875    7.2915731    2095.0494    5271.4106    926.79404 
  151000     317.7768    -1469.804    8.1740992    3193.2995    5928.3299    3690.7885 
  151100    309.22967   -1470.7809    7.9542432    3099.6305    3684.5185    5613.0121 
  151200    278.81225   -1470.0829    7.1718231    3482.3557    4703.1031    5947.3518 
  151300    318.52829   -1470.1961    8.1934296    3826.6252    5873.1978     5308.545 
  151400    278.16178   -1469.6235    7.1550912    2940.6508    3963.8944    4943.9497 
  151500    298.46001   -1469.9779    7.6772178    2959.3946    3375.2278    5512.0584 
  151600    307.34025   -1469.6631    7.9056422    2457.3471    2681.6176    4783.1327 
  151700    293.95817   -1468.7412    7.5614181    2455.8598    4650.1877    2908.4839 
  151800    291.18219   -1470.2648    7.4900122    2311.1194    3024.3435    4011.3069 
  151900    308.27938   -1469.8719    7.9297993    2926.5387    3416.8937    5397.0969 
  152000    316.42621   -1470.5856    8.1393584    2855.3859     3978.863    4638.8116 
  152100    325.45218   -1470.6066    8.3715313     3054.431    5207.9915    3780.7482 
  152200    316.13627   -1469.6666    8.1319002    1498.7254    2941.4584    1573.2401 
  152300    308.71675   -1469.8764    7.9410496    2633.5867    2545.8191    5390.2834 
  152400    287.14816   -1469.2916    7.3862457    2915.2573    3721.2913    5174.3322 
  152500    285.83582   -1470.3643    7.3524887     2427.601    2364.3875    4954.0697 
  152600    290.80248   -1471.0156    7.4802451     2440.055    1878.2227    5215.0064 
  152700     294.2791   -1470.0053    7.5696732    2030.7028    2599.5049    3678.8148 
  152800    289.76874   -1470.1156    7.4536544    2844.1119    4986.2984    3580.2008 
  152900    292.53564   -1470.1312    7.5248266    2866.3449    3807.3829     4744.984 
  153000    274.09565   -1470.0347     7.050499    2636.5919    4272.1723    3861.4135 
  153100    314.48529   -1470.6871    8.0894324    2845.5319    4802.6732    3584.5549 
  153200    322.82554   -1469.9963    8.3039666    2611.2597    3623.0115     4305.037 
  153300    301.64378   -1469.5649    7.7591132    2778.6476    5283.7286    3142.5741 
  153400    305.39511   -1470.3947    7.8556078    3129.2995    6553.2845    2837.2897 
  153500    288.44623   -1469.5826    7.4196358    2498.1927    4818.9381    2798.7312 
  153600     298.7319   -1468.9796    7.6842117    2793.6445    4225.9564    4120.4956 
  153700    305.15274   -1469.7265    7.8493734    3086.0575    4860.5174     4504.999 
  153800    304.17133   -1470.3929    7.8241287    2310.6456    5020.7933    2002.3495 
  153900    280.87328    -1470.362    7.2248383    1816.7142    4258.1252    1452.4521 
  154000    295.57696    -1470.732    7.6030577    1373.7595    4106.1188    -11.07207 
  154100    307.81486   -1469.9759    7.9178504     1662.259    3483.2348    1620.2708 
  154200    311.20043   -1470.8595    8.0049366    3291.0987    5061.4729    4596.1566 
  154300    307.62463   -1470.9908    7.9129572     2526.099     3494.861     3981.333 
  154400    310.86537   -1470.6574    7.9963181    1751.6673    3089.9683    2240.6935 
  154500     313.0026   -1469.5071    8.0512934    1316.9518    1745.4238    2328.2809 
  154600    299.12235   -1471.1895    7.6942551    1671.0644    2467.4876    2422.2187 
  154700    276.24187    -1471.066    7.1057058    2836.2496    5421.5961    3121.7735 
  154800     300.9789   -1470.3992    7.7420107    2701.5663    2803.4631    5291.8834 
  154900     314.6342   -1470.6637    8.0932628    1887.8535    2289.8751    3426.8361 
  155000    299.33429   -1469.3437    7.6997067    2650.3786    4532.6947    3617.2423 
  155100    300.36353   -1470.6678    7.7261817    2635.1908    4797.2375    2865.6283 
  155200    304.63351   -1469.4563    7.8360174    2456.1189    4810.0012    2452.9373 
  155300    315.12114    -1469.478    8.1057881     2202.942    2037.0749    4615.3636 
  155400     323.0275   -1469.5314    8.3091617    2428.6481    2542.6402    4724.1775 
  155500    330.90382   -1468.9496    8.5117626    3098.4135    4692.6675    4673.0835 
  155600    329.82309   -1470.7088     8.483963    3205.5489    4591.9893    4912.7554 
  155700    275.64107    -1470.512    7.0902515    3141.6323    4826.3185     4562.711 
  155800    289.29742   -1470.4133    7.4415305    2730.3972    5207.0631    2983.1212 
  155900    281.17059   -1469.7303     7.232486    1892.1276    4829.1473     733.6617 
  156000     272.3751   -1471.1117    7.0062418     2794.882    4404.0134    3930.1006 
  156100    263.55967   -1470.5262    6.7794843    2949.8254    3042.9374    5789.2282 
  156200    274.92495   -1469.9071    7.0718309    1945.6595    2138.6913    3875.7328 
  156300    296.06154   -1470.3125    7.6155226    2004.2178    1951.6052    4188.3331 
  156400    299.65237   -1470.4543    7.7078887    2608.2052    2952.1199    4966.1496 
  156500    308.09694   -1470.7542    7.9251064    2217.3034    1998.7571    4575.3921 
  156600    304.00532   -1470.7949    7.8198586    2343.5729    2352.6327    4660.3917 
  156700    292.46307     -1470.25    7.5229599    2392.3978    4454.5442    2926.8207 
  156800     341.0287   -1471.1455    8.7722024     3374.482    5532.4685    4452.9585 
  156900    304.68727   -1470.3716    7.8374003    2882.1735    2635.4138     6063.189 
  157000    316.36272   -1469.9092    8.1377251    2700.4992     3299.442    4869.9143 
  157100    292.72352   -1470.1436    7.5296593    1982.8756    2327.2533    3653.5068 
  157200    292.04521   -1469.2325    7.5122113    2221.2531    4482.9905    2488.5962 
  157300    319.20452   -1470.3772    8.2108242    2760.6291    3919.3495    4218.8165 
  157400    307.67825   -1469.6659    7.9143364    2511.6048    4088.4706    3586.5694 
  157500    313.05215   -1470.0413    8.0525682      3391.81    4694.4907    5464.3609 
  157600    288.45539   -1471.2499    7.4198714    3262.7112    5626.7841    4079.1417 
  157700    286.84535   -1469.9907    7.3784565    2187.1192    2225.9193    4421.2163 
  157800    313.54658   -1469.9871    8.0652863    2709.9122    4276.6081    3890.0333 
  157900    313.15663   -1469.9812    8.0552557    2972.0476    4490.8706     4488.916 
  158000    304.09704   -1470.6942    7.8222179    3429.6158    4956.2658    5221.2833 
  158100    324.68405   -1469.3257    8.3517728    3384.7804    4779.6594      5128.77 
  158200    316.53363   -1470.8342    8.1421214    1368.7101    2133.5222    2050.5827 
  158300    265.57379   -1470.2937    6.8312932     1662.112    3321.7928    1776.9429 
  158400    288.37385   -1470.3526    7.4177739    3002.5507    4195.1666    4844.9182 
  158500    287.69601    -1469.354     7.400338    3703.0605    4727.6325    6503.8912 
  158600    300.12934   -1470.2177    7.7201576     2482.483    2857.1794    4663.6913 
  158700    318.48931   -1469.6699    8.1924269    2243.1442    2617.9223    4291.1134 
