200
Atoms. Timestep: 0
1 0.000 0.00000 0
1 1.261 0.72803 0
1 2.522 0.00000 0
1 3.783 0.72803 0
1 5.044 0.00000 0
1 6.305 0.72803 0
1 7.566 0.00000 0
1 8.827 0.72803 0
1 10.088 0.00000 0
1 11.349 0.72803 0
1 12.610 0.00000 0
1 13.871 0.72803 0
1 15.132 0.00000 0
1 16.393 0.72803 0
1 17.654 0.00000 0
1 18.915 0.72803 0
1 20.176 0.00000 0
1 21.437 0.72803 0
1 22.698 0.00000 0
1 23.959 0.72803 0
1 1.261 2.18411 0
1 2.522 2.91215 0
1 3.783 2.18411 0
1 5.044 2.91215 0
1 6.305 2.18411 0
1 7.566 2.91215 0
1 8.827 2.18411 0
1 10.088 2.91215 0
1 11.349 2.18411 0
1 12.610 2.91215 0
1 13.871 2.18411 0
1 15.132 2.91215 0
1 16.393 2.18411 0
1 17.654 2.91215 0
1 18.915 2.18411 0
1 20.176 2.91215 0
1 21.437 2.18411 0
1 22.698 2.91215 0
1 23.959 2.18411 0
1 25.220 2.91215 0
1 2.522 4.36823 0
1 3.783 5.09627 0
1 5.044 4.36823 0
1 6.305 5.09627 0
1 7.566 4.36823 0
1 8.827 5.09627 0
1 10.088 4.36823 0
1 11.349 5.09627 0
1 12.610 4.36823 0
1 13.871 5.09627 0
1 15.132 4.36823 0
1 16.393 5.09627 0
1 17.654 4.36823 0
1 18.915 5.09627 0
1 20.176 4.36823 0
1 21.437 5.09627 0
1 22.698 4.36823 0
1 23.959 5.09627 0
1 25.220 4.36823 0
1 26.481 5.09627 0
1 3.783 6.55234 0
1 5.044 7.28038 0
1 6.305 6.55234 0
1 7.566 7.28038 0
1 8.827 6.55234 0
1 10.088 7.28038 0
1 11.349 6.55234 0
1 12.610 7.28038 0
1 13.871 6.55234 0
1 15.132 7.28038 0
1 16.393 6.55234 0
1 17.654 7.28038 0
1 18.915 6.55234 0
1 20.176 7.28038 0
1 21.437 6.55234 0
1 22.698 7.28038 0
1 23.959 6.55234 0
1 25.220 7.28038 0
1 26.480 6.55234 0
1 27.742 7.28038 0
1 5.044 8.73646 0
1 6.305 9.46450 0
1 7.566 8.73646 0
1 8.827 9.46450 0
1 10.088 8.73646 0
1 11.349 9.46450 0
1 12.610 8.73646 0
1 13.871 9.46450 0
1 15.132 8.73646 0
1 16.393 9.46450 0
1 17.654 8.73646 0
1 18.915 9.46450 0
1 20.176 8.73646 0
1 21.437 9.46450 0
1 22.698 8.73646 0
1 23.959 9.46450 0
1 25.220 8.73646 0
1 26.481 9.46450 0
1 27.742 8.73646 0
1 29.003 9.46450 0
1 6.305 10.92058 0
1 7.566 11.64861 0
1 8.827 10.92058 0
1 10.088 11.64861 0
1 11.349 10.92058 0
1 12.610 11.64861 0
1 13.871 10.92058 0
1 15.132 11.64861 0
1 16.393 10.92058 0
1 17.654 11.64861 0
1 18.915 10.92058 0
1 20.176 11.64861 0
1 21.437 10.92058 0
1 22.698 11.64861 0
1 23.959 10.92058 0
1 25.220 11.64861 0
1 26.481 10.92058 0
1 27.742 11.64861 0
1 29.003 10.92058 0
1 30.264 11.64861 0
1 7.566 13.10469 0
1 8.827 13.83273 0
1 10.088 13.10469 0
1 11.349 13.83273 0
1 12.610 13.10469 0
1 13.871 13.83273 0
1 15.132 13.10469 0
1 16.393 13.83273 0
1 17.654 13.10469 0
1 18.915 13.83273 0
1 20.176 13.10469 0
1 21.437 13.83273 0
1 22.698 13.10469 0
1 23.959 13.83273 0
1 25.220 13.10469 0
1 26.480 13.83273 0
1 27.742 13.10469 0
1 29.003 13.83273 0
1 30.264 13.10469 0
1 31.525 13.83273 0
1 8.827 15.28881 0
1 10.088 16.01685 0
1 11.349 15.28881 0
1 12.610 16.01685 0
1 13.871 15.28881 0
1 15.132 16.01685 0
1 16.393 15.28881 0
1 17.654 16.01685 0
1 18.915 15.28881 0
1 20.175 16.01685 0
1 21.437 15.28881 0
1 22.698 16.01685 0
1 23.959 15.28881 0
1 25.220 16.01685 0
1 26.481 15.28881 0
1 27.742 16.01685 0
1 29.003 15.28881 0
1 30.264 16.01685 0
1 31.525 15.28881 0
1 32.786 16.01685 0
1 10.088 17.47292 0
1 11.349 18.20096 0
1 12.610 17.47292 0
1 13.871 18.20096 0
1 15.132 17.47292 0
1 16.393 18.20096 0
1 17.654 17.47292 0
1 18.915 18.20096 0
1 20.176 17.47292 0
1 21.437 18.20096 0
1 22.698 17.47292 0
1 23.959 18.20096 0
1 25.220 17.47292 0
1 26.481 18.20096 0
1 27.742 17.47292 0
1 29.003 18.20096 0
1 30.264 17.47292 0
1 31.525 18.20096 0
1 32.785 17.47292 0
1 34.047 18.20096 0
1 11.349 19.65704 0
1 12.610 20.38508 0
1 13.871 19.65704 0
1 15.132 20.38508 0
1 16.393 19.65704 0
1 17.654 20.38508 0
1 18.915 19.65704 0
1 20.176 20.38508 0
1 21.437 19.65704 0
1 22.698 20.38508 0
1 23.959 19.65704 0
1 25.220 20.38508 0
1 26.480 19.65704 0
1 27.742 20.38508 0
1 29.003 19.65704 0
1 30.264 20.38508 0
1 31.525 19.65704 0
1 32.786 20.38508 0
1 34.047 19.65704 0
1 35.308 20.38508 0
