200
Atoms. Timestep: 0
1 0 0 0
1 1.261 0.728039 0
1 2.522 0 0
1 3.783 0.728039 0
1 5.044 0 0
1 6.305 0.728039 0
1 7.566 0 0
1 8.827 0.728039 0
1 10.088 0 0
1 11.349 0.728039 0
1 12.61 0 0
1 13.871 0.728039 0
1 15.132 0 0
1 16.393 0.728039 0
1 17.654 0 0
1 18.915 0.728039 0
1 20.176 0 0
1 21.437 0.728039 0
1 22.698 0 0
1 23.959 0.728039 0
1 1.261 2.18412 0
1 2.522 2.91215 0
1 3.783 2.18412 0
1 5.044 2.91215 0
1 6.305 2.18412 0
1 7.566 2.91215 0
1 8.827 2.18412 0
1 10.088 2.91215 0
1 11.349 2.18412 0
1 12.61 2.91215 0
1 13.871 2.18412 0
1 15.132 2.91215 0
1 16.393 2.18412 0
1 17.654 2.91215 0
1 18.915 2.18412 0
1 20.176 2.91215 0
1 21.437 2.18412 0
1 22.698 2.91215 0
1 23.959 2.18412 0
1 25.22 2.91215 0
1 2.522 4.36823 0
1 3.783 5.09627 0
1 5.044 4.36823 0
1 6.305 5.09627 0
1 7.566 4.36823 0
1 8.827 5.09627 0
1 10.088 4.36823 0
1 11.349 5.09627 0
1 12.61 4.36823 0
1 13.871 5.09627 0
1 15.132 4.36823 0
1 16.393 5.09627 0
1 17.654 4.36823 0
1 18.915 5.09627 0
1 20.176 4.36823 0
1 21.437 5.09627 0
1 22.698 4.36823 0
1 23.959 5.09627 0
1 25.22 4.36823 0
1 26.481 5.09627 0
1 3.783 6.55235 0
1 5.044 7.28039 0
1 6.305 6.55235 0
1 7.566 7.28039 0
1 8.827 6.55235 0
1 10.088 7.28039 0
1 11.349 6.55235 0
1 12.61 7.28039 0
1 13.871 6.55235 0
1 15.132 7.28039 0
1 16.393 6.55235 0
1 17.654 7.28039 0
1 18.915 6.55235 0
1 20.176 7.28039 0
1 21.437 6.55235 0
1 22.698 7.28039 0
1 23.959 6.55235 0
1 25.22 7.28039 0
1 26.481 6.55235 0
1 27.742 7.28039 0
1 30.264 8.73646 0
1 6.305 9.4645 0
1 7.566 8.73646 0
1 8.827 9.4645 0
1 10.088 8.73646 0
1 11.349 9.4645 0
1 12.61 8.73646 0
1 13.871 9.4645 0
1 15.132 8.73646 0
1 16.393 9.4645 0
1 17.654 8.73646 0
1 18.915 9.4645 0
1 20.176 8.73646 0
1 21.437 9.4645 0
1 22.698 8.73646 0
1 23.959 9.4645 0
1 25.22 8.73646 0
1 26.481 9.4645 0
1 27.742 8.73646 0
1 29.003 9.4645 0
1 6.305 10.9206 0
1 7.566 11.6486 0
1 8.827 10.9206 0
1 10.088 11.6486 0
1 11.349 10.9206 0
1 12.61 11.6486 0
1 13.871 10.9206 0
1 15.132 11.6486 0
1 16.393 10.9206 0
1 17.654 11.6486 0
1 18.915 10.9206 0
1 20.176 11.6486 0
1 21.437 10.9206 0
1 22.698 11.6486 0
1 23.959 10.9206 0
1 25.22 11.6486 0
1 26.481 10.9206 0
1 27.742 11.6486 0
1 29.003 10.9206 0
1 30.264 11.6486 0
1 7.566 13.1047 0
1 8.827 13.8327 0
1 10.088 13.1047 0
1 11.349 13.8327 0
1 12.61 13.1047 0
1 13.871 13.8327 0
1 15.132 13.1047 0
1 16.393 13.8327 0
1 17.654 13.1047 0
1 18.915 13.8327 0
1 20.176 13.1047 0
1 21.437 13.8327 0
1 22.698 13.1047 0
1 23.959 13.8327 0
1 25.22 13.1047 0
1 26.481 13.8327 0
1 27.742 13.1047 0
1 29.003 13.8327 0
1 30.264 13.1047 0
1 31.525 13.8327 0
1 8.827 15.2888 0
1 10.088 16.0169 0
1 11.349 15.2888 0
1 12.61 16.0169 0
1 13.871 15.2888 0
1 15.132 16.0169 0
1 16.393 15.2888 0
1 17.654 16.0169 0
1 18.915 15.2888 0
1 20.176 16.0169 0
1 21.437 15.2888 0
1 22.698 16.0169 0
1 23.959 15.2888 0
1 25.22 16.0169 0
1 26.481 15.2888 0
1 27.742 16.0169 0
1 29.003 15.2888 0
1 30.264 16.0169 0
1 31.525 15.2888 0
1 32.786 16.0169 0
1 10.088 17.4729 0
1 11.349 18.201 0
1 12.61 17.4729 0
1 13.871 18.201 0
1 15.132 17.4729 0
1 16.393 18.201 0
1 17.654 17.4729 0
1 18.915 18.201 0
1 20.176 17.4729 0
1 21.437 18.201 0
1 22.698 17.4729 0
1 23.959 18.201 0
1 25.22 17.4729 0
1 26.481 18.201 0
1 27.742 17.4729 0
1 29.003 18.201 0
1 30.264 17.4729 0
1 31.525 18.201 0
1 32.786 17.4729 0
1 34.047 18.201 0
1 11.349 19.657 0
1 12.61 20.3851 0
1 13.871 19.657 0
1 15.132 20.3851 0
1 16.393 19.657 0
1 17.654 20.3851 0
1 18.915 19.657 0
1 20.176 20.3851 0
1 21.437 19.657 0
1 22.698 20.3851 0
1 23.959 19.657 0
1 25.22 20.3851 0
1 26.481 19.657 0
1 27.742 20.3851 0
1 29.003 19.657 0
1 30.264 20.3851 0
1 31.525 19.657 0
1 32.786 20.3851 0
1 34.047 19.657 0
1 35.308 20.3851 0
200
Atoms. Timestep: 50000
1 0.00318042 -0.0180118 -0.193062
1 1.2022 0.717806 -0.423474
1 2.48988 -0.00369925 -0.649256
1 3.76231 0.754378 -0.559958
1 5.04865 0.0262469 -0.449778
1 6.26915 0.754776 -0.456198
1 7.56457 0.0494314 -0.366347
1 8.81015 0.76533 -0.270454
1 10.1081 0.0151241 -0.197606
1 11.3965 0.731278 -0.161626
1 12.6573 0.0372513 -0.004702
1 13.8955 0.718543 0.143351
1 15.1643 0.0150153 0.261194
1 16.44 0.695999 0.353386
1 17.6922 -0.0500727 0.369598
1 18.9501 0.689913 0.377036
1 20.2217 -0.02768 0.397848
1 21.4983 0.693676 0.366505
1 22.7403 -0.0410454 0.294067
1 23.9442 0.709037 0.0566094
1 1.22465 2.15929 -0.389553
1 2.47967 2.92818 -0.395862
1 3.7261 2.18598 -0.480007
1 5.00452 2.93465 -0.390181
1 6.27139 2.18381 -0.44391
1 7.55239 2.96717 -0.366441
1 8.8672 2.20963 -0.309472
1 10.1218 2.91506 -0.293152
1 11.3773 2.18256 -0.206968
1 12.6298 2.92599 -0.0571135
1 13.9018 2.19015 0.111945
1 15.1635 2.9189 0.223889
1 16.4531 2.173 0.245612
1 17.6949 2.87506 0.260792
1 18.931 2.18431 0.301779
1 20.1934 2.89683 0.204146
1 21.4418 2.16058 0.175609
1 22.6744 2.90114 0.0336888
1 23.9198 2.16853 -0.116641
1 25.1655 2.92288 -0.229855
1 2.47482 4.40558 -0.399799
1 3.75462 5.13222 -0.29332
1 5.0338 4.37108 -0.386325
1 6.29915 5.09027 -0.201826
1 7.55145 4.36067 -0.297498
1 8.81612 5.07843 -0.203479
1 10.0873 4.38186 -0.350462
1 11.3614 5.11121 -0.372214
1 12.6434 4.36448 -0.296263
1 13.9107 5.10894 -0.227371
1 15.1672 4.40142 0.0268823
1 16.4008 5.10329 0.020906
1 17.6668 4.36396 0.127343
1 18.9082 5.07818 0.0392557
1 20.2038 4.36187 0.0374754
1 21.4578 5.0865 0.107076
1 22.6724 4.35342 -0.0404176
1 23.9219 5.1218 -0.155026
1 25.1836 4.36133 -0.209909
1 26.4799 5.11343 -0.328543
1 3.77174 6.56082 0.0336837
1 5.02273 7.24634 0.116763
1 6.28659 6.53069 0.0480554
1 7.58535 7.25523 0.119931
1 8.82874 6.53492 -0.0786327
1 10.1182 7.25875 -0.195259
1 11.3751 6.54542 -0.402515
1 12.6288 7.27642 -0.274439
1 13.9149 6.55545 -0.244002
1 15.1222 7.26546 -0.0420034
1 16.3907 6.53532 0.0359083
1 17.644 7.25451 -0.056654
1 18.9118 6.56427 0.0347832
1 20.1625 7.2623 0.144882
1 21.4179 6.55059 0.0669758
1 22.6852 7.29472 0.0802588
1 23.9361 6.60817 -0.00858272
1 25.1957 7.33641 -0.119479
1 26.4778 6.57336 -0.152887
1 27.7463 7.27311 0.124383
1 30.2474 8.70895 0.269165
1 6.27961 9.4249 0.290332
1 7.53906 8.71978 0.171646
1 8.79349 9.45018 -0.0734945
1 10.0706 8.74643 -0.130808
1 11.3424 9.47094 -0.177332
1 12.5937 8.73634 -0.0811956
1 13.8639 9.45739 0.02522
1 15.1268 8.71396 0.0572527
1 16.3825 9.44976 -0.0417786
1 17.6316 8.73618 0.00355398
1 18.9013 9.4651 0.114838
1 20.1501 8.74585 0.204332
1 21.4297 9.46844 0.117735
1 22.6632 8.76962 0.121614
1 23.96 9.50493 0.160408
1 25.2102 8.77642 0.00553866
1 26.4384 9.44072 0.320872
1 27.723 8.71323 0.400646
1 28.9995 9.41668 0.397851
1 6.32206 10.895 0.32314
1 7.55097 11.6641 0.0801072
1 8.7968 10.9538 -0.151216
1 10.0559 11.671 -0.162206
1 11.3406 10.9088 -0.129894
1 12.6026 11.6356 -0.198879
1 13.8522 10.9268 -0.144383
1 15.1307 11.6477 -0.244015
1 16.3944 10.9145 -0.210298
1 17.6424 11.6513 -0.0711544
1 18.943 10.929 0.0776623
1 20.1706 11.6146 0.092798
1 21.4038 10.923 0.124079
1 22.6636 11.6228 0.226997
1 23.9407 10.9317 0.350082
1 25.1875 11.656 0.503885
1 26.4683 10.9183 0.466272
1 27.7295 11.6165 0.498804
1 28.9991 10.9069 0.507518
1 30.2353 11.6514 0.472784
1 7.53822 13.099 0.0656119
1 8.8518 13.826 -0.0112963
1 10.0963 13.0995 -0.175275
1 11.3355 13.839 -0.247918
1 12.6032 13.0938 -0.300761
1 13.8847 13.7946 -0.325066
1 15.1181 13.0763 -0.351284
1 16.3719 13.8197 -0.336797
1 17.6175 13.1004 -0.124657
1 18.9103 13.7998 -0.00375058
1 20.1513 13.0785 0.0958301
1 21.414 13.8222 0.170021
1 22.6613 13.1203 0.264372
1 23.9335 13.8456 0.42637
1 25.1915 13.1072 0.510197
1 26.4871 13.8449 0.486093
1 27.7631 13.0977 0.546163
1 29.0126 13.8677 0.43805
1 30.245 13.1365 0.31775
1 31.5207 13.8317 0.0920313
1 8.88452 15.2888 -0.0059267
1 10.1448 15.983 -0.0131339
1 11.3637 15.2612 -0.0992521
1 12.612 15.9984 -0.189575
1 13.8769 15.2655 -0.280026
1 15.1378 16.0313 -0.353827
1 16.3779 15.2942 -0.377194
1 17.6827 15.9797 -0.490648
1 18.9036 15.2698 -0.155988
1 20.1554 16.0222 -0.140015
1 21.4687 15.3128 -0.00786726
1 22.6722 16.0388 0.27588
1 23.9455 15.3119 0.418585
1 25.1878 16.0633 0.492651
1 26.5013 15.3021 0.56303
1 27.7063 16.0293 0.523098
1 28.991 15.3227 0.530958
1 30.2509 16.037 0.399503
1 31.5467 15.2787 0.154119
1 32.8091 16.0071 0.0133019
1 10.1261 17.4767 0.0815229
1 11.3959 18.2095 0.0162657
1 12.674 17.4994 -0.057337
1 13.8991 18.2104 -0.28325
1 15.1505 17.4839 -0.394413
1 16.4182 18.1774 -0.540434
1 17.6545 17.4977 -0.469569
1 18.9474 18.1829 -0.473553
1 20.1774 17.4916 -0.14714
1 21.42 18.2167 -0.005547
1 22.6742 17.5039 0.223333
1 23.9514 18.2446 0.246289
1 25.1992 17.5195 0.332827
1 26.4688 18.2065 0.326129
1 27.7299 17.4737 0.347862
1 28.9821 18.1837 0.311927
1 30.2819 17.4789 0.403375
1 31.5288 18.2047 0.306439
1 32.8008 17.4812 0.182954
1 34.0836 18.1875 0.29381
1 11.3926 19.6625 -0.00635389
1 12.64 20.3912 -0.193847
1 13.9008 19.6576 -0.389287
1 15.1405 20.3591 -0.639817
1 16.4101 19.6629 -0.647361
1 17.6878 20.4025 -0.647881
1 18.9203 19.6559 -0.51869
1 20.1665 20.4082 -0.269528
1 21.4189 19.684 -0.0488343
1 22.6994 20.3882 0.0150401
1 23.9348 19.6956 0.223102
1 25.2511 20.3973 0.127311
1 26.4825 19.6373 0.138084
1 27.7726 20.3728 0.187843
1 29.0188 19.6428 0.273112
1 30.2658 20.344 0.402791
1 31.5276 19.6452 0.422002
1 32.8012 20.3831 0.394218
1 34.0919 19.6392 0.278897
1 35.3601 20.3468 0.242772
200
Atoms. Timestep: 100000
1 25.2176 -0.0152088 -0.110788
1 1.23005 0.719424 -0.0459991
1 2.45414 0.00370397 0.00898222
1 3.75918 0.711805 -0.0202836
1 5.00304 0.0125737 -0.106675
1 6.28009 0.706941 -0.0656115
1 7.53366 -0.0319837 0.0775966
1 8.83207 0.681131 -0.0165766
1 10.0875 -0.0684022 0.0493484
1 11.4069 0.69364 0.0195374
1 12.6537 -0.0229263 -0.0786795
1 13.9337 0.747139 -0.156732
1 15.1784 0.0120248 -0.199052
1 16.4117 0.743439 -0.17599
1 30.2868 21.8539 -0.234463
1 18.9348 0.714407 -0.178475
1 20.1643 -0.0171685 -0.192828
1 21.4269 0.748415 -0.232372
1 35.3108 21.8483 -0.216972
1 23.9572 0.752851 -0.237428
1 1.24911 2.17306 -0.110663
1 2.49376 2.90739 -0.13924
1 3.77295 2.16644 -0.0895708
1 5.06322 2.88036 -0.131886
1 6.3187 2.15212 -0.109367
1 7.54287 2.8639 0.0470455
1 8.83126 2.14924 0.0859342
1 10.0712 2.86984 0.0174788
1 11.3787 2.16747 0.0710838
1 12.6047 2.89537 -0.0609266
1 13.8983 2.1829 -0.183586
1 15.1482 2.89762 -0.0430108
1 16.401 2.18383 -0.094793
1 17.6465 2.89839 0.0698829
1 18.9352 2.17526 -0.0574741
1 20.1695 2.91923 0.0472519
1 21.445 2.19666 -0.070044
1 22.6917 2.91073 0.127396
1 23.9248 2.19878 -0.0824191
1 25.1505 2.92236 -0.0667636
1 27.6772 4.36512 -0.0179648
1 3.73546 5.05839 -0.0210779
1 5.02018 4.31581 -0.0881926
1 6.30238 5.0893 0.0100793
1 7.54243 4.3229 0.00850148
1 8.82841 5.05439 -0.0683704
1 10.0677 4.30225 -0.0468805
1 11.3702 5.03424 0.0345271
1 12.6099 4.33395 -0.0405419
1 13.8561 5.08082 -0.0085834
1 15.137 4.38641 -0.0292173
1 16.3666 5.1243 0.0915562
1 17.6104 4.35404 0.168307
1 18.9132 5.09418 0.180166
1 20.1931 4.33069 0.252431
1 21.4812 5.06672 0.37838
1 22.7197 4.35979 0.242525
1 23.9624 5.09261 0.246587
1 25.1867 4.41146 0.10501
1 26.4201 5.08418 0.121213
1 3.78425 6.54883 0.0779728
1 5.04018 7.29605 0.0364092
1 6.28691 6.51096 -0.0297785
1 7.58606 7.25493 -0.0129815
1 8.8442 6.5306 -0.0784316
1 10.0832 7.275 -0.0464389
1 11.352 6.53564 0.00681976
1 12.6029 7.26238 0.0773408
1 13.8382 6.57002 0.0224428
1 15.1077 7.27477 0.0124966
1 16.3611 6.56596 0.121507
1 17.6428 7.29613 0.145412
1 18.8946 6.53724 0.178195
1 20.1831 7.24515 0.285441
1 21.4094 6.52198 0.286212
1 22.6475 7.25821 0.330577
1 23.943 6.53952 0.381463
1 25.1905 7.26428 0.417146
1 26.4312 6.54988 0.19715
1 27.7114 7.28166 0.1203
1 5.07836 8.75663 0.202709
1 6.32409 9.45427 0.0640996
1 7.5803 8.71136 -0.0674062
1 8.83961 9.45167 -0.13076
1 10.0764 8.72144 -0.172165
1 11.3543 9.44605 -0.284568
1 12.6138 8.74612 -0.125041
1 13.8722 9.4132 -0.198739
1 15.1053 8.69254 -0.0521157
1 16.3599 9.42152 -0.187283
1 17.637 8.74607 0.0890466
1 18.8847 9.48045 0.123542
1 20.1652 8.72592 0.180109
1 21.4281 9.47998 0.346557
1 22.6771 8.72053 0.321015
1 23.9802 9.46571 0.324085
1 25.2079 8.73763 0.350679
1 26.4779 9.43674 0.108353
1 27.7356 8.72866 0.212545
1 29.0116 9.46725 0.19436
1 6.33689 10.9057 0.111294
1 7.61464 11.6439 0.0971198
1 8.85584 10.9299 -0.0193576
1 10.1119 11.6411 -0.108299
1 11.3658 10.8837 -0.305596
1 12.6063 11.6417 -0.407021
1 13.8778 10.9224 -0.296873
1 15.1114 11.643 -0.0993628
1 16.3839 10.8822 -0.163588
1 17.6669 11.6326 -0.057684
1 18.8931 10.9119 0.0462968
1 20.1784 11.6508 0.141949
1 21.433 10.9284 0.383897
1 22.7355 11.6702 0.423986
1 23.9972 10.9019 0.32542
1 25.2225 11.6574 0.145783
1 26.4797 10.9256 0.0719071
1 27.7498 11.648 0.123498
1 29.0026 10.9401 0.220992
1 30.2911 11.642 0.177668
1 32.8557 13.0826 0.181546
1 8.89153 13.8317 0.0399099
1 10.1333 13.0802 -0.0220773
1 11.3742 13.8331 -0.185726
1 12.5961 13.136 -0.398578
1 13.8668 13.8338 -0.426174
1 15.1061 13.0982 -0.117576
1 16.3925 13.8352 -0.0768586
1 17.6441 13.0837 0.0313167
1 18.9146 13.8159 0.0950363
1 20.2124 13.0957 0.13473
1 21.4368 13.8281 0.127587
1 22.7109 13.1291 0.222363
1 23.9673 13.8669 0.0656216
1 25.228 13.1412 0.00160955
1 26.5109 13.8653 0.0115345
1 27.7376 13.1249 -0.00498017
1 29.0012 13.8535 0.0447729
1 30.3232 13.0888 0.153192
1 31.5439 13.792 0.272646
1 34.1162 15.2855 0.0821378
1 10.1221 16.0387 0.0167365
1 11.3608 15.2998 -0.122434
1 12.6163 16.0412 -0.265991
1 13.8811 15.3371 -0.341164
1 15.1246 16.0078 -0.18024
1 16.3838 15.2904 -0.110353
1 17.655 16.0082 -0.0884247
1 18.9374 15.2704 0.055145
1 20.2029 16.014 -0.0376785
1 21.45 15.2803 -0.0379533
1 22.6955 16.0077 -0.073732
1 23.9411 15.3284 0.03584
1 25.2368 16.0761 -0.0474196
1 26.5169 15.3301 -0.0533154
1 27.7374 16.0562 -0.0342928
1 28.996 15.3402 0.0779792
1 30.25 16.0396 0.0947481
1 31.5411 15.3221 0.279043
1 32.8232 16.0127 0.224518
1 35.3158 17.4839 -0.0243488
1 11.335 18.239 -0.179258
1 12.5892 17.5428 -0.282274
1 13.864 18.2678 -0.0583114
1 15.1096 17.5047 -0.0486119
1 16.384 18.2063 0.0386843
1 17.67 17.4663 -0.0828259
1 18.8985 18.2106 -0.0273738
1 20.1556 17.4672 -0.00935106
1 21.4014 18.2052 0.0718324
1 22.6783 17.483 -0.00343154
1 23.9689 18.2275 -0.0396887
1 25.2385 17.5036 -0.0173267
1 26.509 18.2279 -0.0894989
1 27.7348 17.5115 -0.140997
1 29.0384 18.2233 -0.283155
1 30.2864 17.5209 -0.0310988
1 31.5319 18.218 0.037635
1 32.8176 17.4795 0.0959266
1 34.066 18.237 -0.0376697
1 36.5486 19.7101 -0.134244
1 12.5717 20.395 -0.00042425
1 13.8183 19.6889 0.0258459
1 15.062 20.4067 -0.0823961
1 16.3773 19.6962 0.0356063
1 17.6285 20.426 -0.00277513
1 18.8946 19.6935 0.00931473
1 20.1307 20.3654 0.0960288
1 21.391 19.6529 0.101219
1 22.6614 20.3726 0.0478681
1 23.9414 19.6359 -0.00205544
1 25.2621 20.3973 -0.140834
1 26.4793 19.6652 -0.274021
1 27.7659 20.426 -0.22783
1 29.0173 19.7159 -0.400142
1 30.2885 20.4313 -0.310367
1 31.537 19.7014 -0.176289
1 32.8285 20.4034 -0.0834244
1 34.1027 19.6825 -0.0635895
1 35.3407 20.4038 -0.201021
200
Atoms. Timestep: 150000
1 25.2464 -0.0193348 -0.0133958
1 1.2795 0.734402 0.13443
1 2.54372 0.0493057 0.328643
1 3.77513 0.752053 0.160977
1 17.6271 21.8707 0.123845
1 6.27944 0.73893 0.0214546
1 20.152 21.8694 -0.0416078
1 8.79849 0.71953 -0.106169
1 22.6593 21.8187 -0.256528
1 11.3108 0.719967 -0.329749
1 12.6073 0.0226798 -0.382554
1 13.849 0.730941 -0.32152
1 27.7135 21.8323 -0.259786
1 16.3967 0.728371 -0.110635
1 30.2914 21.829 -0.0612105
1 18.9356 0.746447 0.105412
1 32.8431 21.8595 0.106922
1 21.4532 0.726155 -0.0737715
1 22.7317 0.0146294 -0.15955
1 23.9949 0.740077 -0.224488
1 26.4737 2.21423 -0.0101984
1 2.50515 2.92587 -0.0357957
1 3.76691 2.22296 -0.000379629
1 5.04643 2.92281 0.00304896
1 6.30243 2.17074 -0.045976
1 7.56495 2.89908 -0.0239831
1 8.79967 2.15513 -0.0793214
1 10.0624 2.90462 -0.0925556
1 11.326 2.17815 -0.244568
1 12.6055 2.90334 -0.149075
1 13.8724 2.16031 -0.139813
1 15.1287 2.88214 0.0941666
1 16.3998 2.14132 0.0915255
1 17.6396 2.91609 0.0938083
1 18.9244 2.18974 0.133535
1 20.1847 2.90484 -0.014363
1 21.4464 2.16046 -0.204127
1 22.698 2.89422 -0.27207
1 23.9924 2.19242 -0.358447
1 25.251 2.9385 -0.169062
1 27.7274 4.37111 -0.226113
1 3.80972 5.0915 -0.244708
1 5.0321 4.36542 -0.0416418
1 6.30095 5.09832 -0.0232164
1 7.55154 4.37642 0.0324755
1 8.82716 5.1003 -0.0217935
1 10.0743 4.35218 0.0426303
1 11.3298 5.07756 0.02632
1 12.5899 4.37072 0.00929961
1 13.8606 5.10307 -0.00177679
1 15.1693 4.36844 0.103689
1 16.4259 5.08636 -0.0208154
1 17.6792 4.38305 0.0576481
1 18.9015 5.08085 0.00264164
1 20.1581 4.34528 0.00343882
1 21.4331 5.1267 -0.0778865
1 22.6647 4.39561 -0.194924
1 23.9582 5.15403 -0.113365
1 25.1957 4.42345 -0.249837
1 26.469 5.12338 -0.247314
1 29.0336 6.56239 -0.251514
1 5.07309 7.26685 -0.132975
1 6.29838 6.54206 -0.100663
1 7.59323 7.23693 -0.0375191
1 8.82412 6.53892 -0.00687195
1 10.0809 7.26845 0.157145
1 11.3382 6.51687 0.0598139
1 12.5962 7.27828 0.154382
1 13.8444 6.52336 0.0379385
1 15.1365 7.256 0.0904561
1 16.4036 6.55083 -0.0713356
1 17.6331 7.28797 0.0104643
1 18.9182 6.56256 0.00589407
1 20.2095 7.27726 0.0324111
1 21.4525 6.58213 -0.00916572
1 22.6978 7.30286 0.0455972
1 23.9829 6.60344 -0.132092
1 25.2361 7.30872 -0.104323
1 26.4808 6.56998 -0.219834
1 27.7867 7.29275 -0.312953
1 5.09203 8.73321 -0.0537147
1 6.32493 9.43804 -0.0609381
1 7.60109 8.71488 -0.00515089
1 8.86556 9.41753 0.150221
1 10.1164 8.71537 0.202877
1 11.3377 9.4322 0.30011
1 12.6191 8.69103 0.165072
1 13.8703 9.44581 0.0906867
1 15.1374 8.72834 0.0764627
1 16.3616 9.4523 0.0180441
1 17.6529 8.75101 0.0459735
1 18.9299 9.45756 -0.063492
1 20.2156 8.70991 -0.0671773
1 21.4482 9.45704 0.0927346
1 22.7045 8.76383 0.065545
1 23.9678 9.52808 0.0592859
1 25.267 8.75726 0.00165224
1 26.5113 9.45994 -0.056494
1 27.8056 8.75496 -0.123655
1 29.0572 9.47518 -0.0764333
1 6.31023 10.8939 -0.0501882
1 7.56546 11.6162 -0.0148922
1 8.82012 10.8507 0.0823285
1 10.0853 11.6002 0.172207
1 11.3181 10.9094 0.326324
1 12.5936 11.6185 0.235242
1 13.8483 10.8903 0.136222
1 15.1254 11.611 0.109738
1 16.3769 10.9223 0.0419938
1 17.6403 11.6234 0.0328988
1 18.9094 10.8764 -0.0489649
1 20.1691 11.623 0.151735
1 21.441 10.9006 0.256485
1 22.6912 11.6343 0.36765
1 23.9653 10.931 0.0790053
1 25.2445 11.6785 -0.109687
1 26.4965 10.9186 -0.164262
1 27.7412 11.6657 -0.125562
1 29.04 10.9306 -0.0895682
1 30.2957 11.6368 -0.0801234
1 32.822 13.0891 -0.0392184
1 8.84616 13.8203 -0.00505114
1 10.0773 13.0803 0.0985404
1 11.3383 13.7927 0.128963
1 12.5491 13.0619 0.162309
1 13.8567 13.8387 0.130252
1 15.0818 13.1096 0.0641663
1 16.3647 13.8466 0.0551934
1 17.6303 13.0774 0.0227232
1 18.9119 13.7742 0.0703553
1 20.1601 13.0501 0.0614928
1 21.4224 13.7703 0.0862556
1 22.6763 13.0651 0.298758
1 23.9722 13.8224 0.195796
1 25.2574 13.1272 -0.0823121
1 26.4759 13.8406 -0.138685
1 27.75 13.1336 -0.139062
1 28.9735 13.8629 -0.217371
1 30.2677 13.1038 -0.254595
1 31.5474 13.8526 -0.218064
1 34.0868 15.3017 0.0722044
1 10.1056 16.01 0.228956
1 11.3706 15.2777 0.266398
1 12.6049 16.0177 0.311794
1 13.8399 15.3112 0.272906
1 15.1499 16.0525 0.311486
1 16.3918 15.3089 0.209047
1 17.655 16.027 0.226078
1 18.9032 15.2787 0.129203
1 20.1579 15.9977 0.20765
1 21.4367 15.2635 0.124012
1 22.6972 16.0365 0.0462508
1 23.9655 15.3073 0.115819
1 25.239 16.049 -0.0172034
1 26.4604 15.3221 -0.156823
1 27.748 16.0337 -0.243941
1 28.9654 15.3118 -0.149047
1 30.2575 16.0285 -0.117426
1 31.5222 15.2888 -0.140563
1 32.796 16.0315 -0.134558
1 10.1214 17.4764 0.177671
1 11.3359 18.2219 0.201841
1 12.6026 17.5 0.296809
1 13.8509 18.2413 0.397303
1 15.1445 17.5241 0.438122
1 16.3993 18.2271 0.273448
1 17.6379 17.4835 0.18604
1 18.9031 18.2008 0.11948
1 20.1533 17.4423 0.173808
1 21.442 18.1978 0.0764221
1 22.6847 17.4725 0.113096
1 23.9503 18.199 -0.0665497
1 25.2267 17.4629 -0.13572
1 26.5028 18.2178 -0.340145
1 27.7439 17.5088 -0.317605
1 28.9833 18.1955 -0.138275
1 30.2443 17.4826 -0.0989398
1 31.5092 18.2062 -0.0833344
1 32.7696 17.4658 -0.075379
1 34.0407 18.2101 -0.026199
1 11.3293 19.6476 0.0947228
1 12.5894 20.3939 0.144101
1 13.8512 19.6836 0.330768
1 15.1195 20.3974 0.434128
1 16.4028 19.662 0.296072
1 17.6342 20.4105 0.101079
1 18.888 19.6606 0.0187302
1 20.1565 20.3923 0.041831
1 21.4237 19.655 -0.0419739
1 22.6748 20.3675 -0.0666447
1 23.9125 19.6637 -0.180389
1 25.1881 20.3936 -0.402883
1 26.4831 19.6867 -0.369245
1 27.7156 20.3963 -0.261673
1 29.0211 19.6471 -0.218254
1 30.2776 20.4031 -0.0579237
1 31.5241 19.6514 0.0162081
1 32.8124 20.387 0.011059
1 34.053 19.6394 -0.128044
1 35.3214 20.4068 -0.0931217
200
Atoms. Timestep: 200000
1 37.7638 21.879 0.472782
1 1.21638 0.779517 0.426173
1 2.50998 0.0539212 0.573589
1 3.8306 0.738839 0.481599
1 17.6831 21.8279 0.390564
1 6.32883 0.709234 0.319721
1 20.2024 21.8341 0.337638
1 8.84542 0.730785 0.578162
1 22.7089 21.8292 0.364722
1 11.3458 0.730886 0.183095
1 25.1994 21.837 -0.126202
1 13.8463 0.730249 -0.320865
1 27.7612 21.8381 -0.448939
1 16.4043 0.725977 -0.428023
1 30.2936 21.8469 -0.183915
1 18.9434 0.71812 -0.0839599
1 20.1621 -0.0328006 0.0279061
1 21.4456 0.703003 0.0343774
1 22.6556 -0.00936083 0.0375465
1 23.9435 0.759078 0.277091
1 1.24638 2.19493 0.326423
1 2.57384 2.92733 0.315502
1 3.81997 2.19799 0.375366
1 5.0964 2.9401 0.27908
1 6.33643 2.17888 0.333369
1 7.5832 2.88659 0.332233
1 8.84365 2.17918 0.495864
1 10.1138 2.91306 0.373653
1 11.2955 2.17342 0.0983258
1 12.5708 2.90934 -0.143384
1 13.8463 2.17522 -0.241717
1 15.1591 2.88201 -0.28771
1 16.4209 2.17745 -0.402686
1 17.6924 2.88894 -0.282584
1 18.9526 2.13936 -0.145933
1 20.2001 2.85542 -0.0365391
1 21.449 2.12938 0.0510732
1 22.6993 2.91427 0.224216
1 23.9565 2.19653 0.304591
1 25.2 2.91504 0.364749
1 27.7537 4.38189 0.217709
1 3.78517 5.09026 0.20073
1 5.11197 4.37951 0.260512
1 6.36685 5.09297 0.0410703
1 7.61008 4.36803 0.0749164
1 8.87034 5.10461 0.125917
1 10.1011 4.37113 0.260146
1 11.3313 5.07148 -0.0326996
1 12.6196 4.35574 -0.139734
1 13.8556 5.09401 -0.208962
1 15.135 4.33433 -0.23401
1 16.3812 5.08294 -0.109678
1 17.6608 4.36231 -0.102812
1 18.916 5.08844 -0.137474
1 20.1702 4.35307 -0.0464213
1 21.4435 5.11509 0.0757272
1 22.6975 4.37562 0.248478
1 23.9905 5.12009 0.336325
1 25.2458 4.37537 0.385837
1 26.4937 5.09468 0.180335
1 3.7727 6.56946 0.0646275
1 5.02715 7.27385 -0.0376792
1 6.33862 6.54912 -0.0890678
1 7.57732 7.28791 0.0134971
1 8.85749 6.51264 0.1658
1 10.1212 7.25082 0.07207
1 11.3714 6.55806 -0.025137
1 12.5984 7.29646 -0.135746
1 13.8601 6.54816 -0.255509
1 15.1074 7.28157 -0.189176
1 16.3807 6.54645 -0.0684225
1 17.6249 7.26085 -0.145922
1 18.8848 6.51601 -0.252429
1 20.1766 7.2712 -0.19303
1 21.4368 6.57797 0.00265562
1 22.7085 7.29201 -0.0681687
1 23.9844 6.53062 0.018114
1 25.2413 7.29186 -0.0797916
1 26.5071 6.54739 -0.0232438
1 27.7291 7.28197 -0.0871036
1 5.00256 8.72028 0.0582652
1 6.27384 9.45572 -0.027224
1 7.57987 8.76748 0.0718309
1 8.83648 9.51228 0.117097
1 10.1116 8.78857 0.101425
1 11.3754 9.5173 0.197534
1 12.6185 8.77808 0.056204
1 13.8183 9.48076 -0.0420162
1 15.0907 8.73828 -0.0927741
1 16.3591 9.46238 -0.126862
1 17.6011 8.7192 -0.198696
1 18.86 9.48957 -0.285519
1 20.1713 8.72215 -0.349467
1 21.4703 9.47003 -0.495529
1 22.7007 8.74434 -0.290454
1 23.9935 9.46606 -0.352887
1 25.2256 8.75824 -0.31076
1 26.4575 9.45756 -0.447922
1 27.7091 8.72838 -0.241984
1 28.9605 9.45326 -0.133855
1 6.2756 10.9044 0.0760834
1 7.55475 11.6507 0.233351
1 8.83053 10.9276 0.205806
1 10.0882 11.6787 0.259525
1 11.3526 10.9446 0.311609
1 12.6011 11.6507 0.255011
1 13.8228 10.9239 0.0737048
1 15.0648 11.6731 -0.131608
1 16.3963 10.9501 -0.122043
1 17.6706 11.6634 -0.253059
1 18.9203 10.9474 -0.340521
1 20.16 11.6331 -0.492907
1 21.4563 10.9209 -0.536919
1 22.7062 11.6575 -0.453892
1 23.9824 10.9375 -0.426597
1 25.2198 11.6641 -0.546257
1 26.4563 10.9131 -0.497795
1 27.7368 11.6518 -0.487937
1 28.9732 10.893 -0.295541
1 30.2687 11.6279 -0.155825
1 32.7538 13.0951 0.169619
1 8.846 13.8295 0.257322
1 10.1216 13.1225 0.246991
1 11.3343 13.8496 0.18909
1 12.6039 13.1242 0.267409
1 13.8519 13.8681 0.135295
1 15.1037 13.1461 -0.131421
1 16.3929 13.815 -0.045488
1 17.6281 13.0859 -0.265291
1 18.8748 13.7939 -0.307021
1 20.1428 13.0915 -0.462856
1 21.4332 13.8398 -0.388726
1 22.7051 13.133 -0.395011
1 23.976 13.8228 -0.441735
1 25.2311 13.1099 -0.55297
1 26.4859 13.8376 -0.492627
1 27.7791 13.1056 -0.461185
1 29.0483 13.8363 -0.314836
1 30.294 13.0759 -0.1459
1 31.56 13.8079 0.065629
1 34.0292 15.2844 0.213493
1 10.0684 16.0514 0.163901
1 11.3641 15.3045 0.0908846
1 12.6309 16.0359 0.116317
1 13.8777 15.2851 0.190298
1 15.1312 16.0033 0.227477
1 16.4141 15.2595 0.0897054
1 17.6605 15.9816 0.114238
1 18.9166 15.233 -0.0870357
1 20.1685 15.9561 -0.0408841
1 21.4283 15.2868 -0.296386
1 22.696 16.046 -0.414394
1 23.9596 15.3097 -0.414126
1 25.1935 16.0091 -0.346897
1 26.4701 15.2813 -0.399143
1 27.7535 16.0041 -0.309559
1 29.0425 15.2853 -0.240822
1 30.3089 16.0034 -0.0498244
1 31.5305 15.2841 0.0364184
1 32.7306 16.0158 0.255394
1 35.3133 17.475 0.401563
1 11.3243 18.1907 0.287254
1 12.6237 17.5093 0.216437
1 13.8175 18.2141 0.319925
1 15.1195 17.4855 0.227905
1 16.3919 18.1797 0.346855
1 17.6634 17.4541 0.187026
1 18.9089 18.1764 0.224828
1 20.1669 17.4306 0.0823415
1 21.4263 18.1801 0.00774035
1 22.6852 17.4828 -0.213352
1 23.9485 18.2145 -0.171816
1 25.2277 17.4737 -0.155281
1 26.4913 18.2343 -0.103711
1 27.727 17.4928 -0.13652
1 28.9975 18.2011 -0.167474
1 30.2586 17.4506 -0.0843633
1 31.4892 18.2044 0.132979
1 32.7453 17.4864 0.392801
1 34.0245 18.1941 0.389513
1 36.5651 19.6564 0.316161
1 12.5722 20.3974 0.570794
1 13.8504 19.6561 0.5958
1 15.1145 20.3928 0.538594
1 16.4263 19.6706 0.42165
1 17.693 20.3744 0.403221
1 18.9324 19.627 0.31467
1 20.1872 20.3774 0.201377
1 21.3979 19.6607 0.0470946
1 22.6979 20.401 0.127581
1 23.9324 19.6627 -0.086432
1 25.2275 20.4049 -0.25972
1 26.5103 19.661 -0.175744
1 27.7441 20.3935 -0.350852
1 29.0126 19.6743 -0.14433
1 30.2631 20.3771 -0.133261
1 31.5108 19.6336 0.040618
1 32.7847 20.3671 0.0731461
1 34.0409 19.6638 0.171439
1 35.2893 20.4004 0.108399
200
Atoms. Timestep: 250000
1 25.2045 0.000584515 0.235114
1 1.26798 0.717562 0.465313
1 15.1267 21.7958 0.471012
1 3.8235 0.684787 0.502705
1 17.6814 21.8095 0.331803
1 6.35303 0.702603 0.389007
1 20.19 21.8195 0.0533986
1 8.87276 0.695761 0.146871
1 10.1059 -0.0298368 -0.0219344
1 11.3866 0.740014 -0.177909
1 12.6235 0.0113597 -0.231195
1 13.9096 0.751822 -0.288022
1 15.1579 0.0218872 -0.244382
1 16.4097 0.731652 -0.0849241
1 30.2743 21.8641 0.0166591
1 18.9106 0.733869 0.029998
1 32.7637 21.8799 0.0836676
1 21.4438 0.745397 0.149563
1 22.6985 0.00765284 0.100288
1 23.9478 0.75332 0.243565
1 26.4831 2.1742 0.570088
1 2.53252 2.91362 0.692484
1 3.80278 2.19697 0.633859
1 5.08519 2.91872 0.533903
1 6.34917 2.18234 0.453689
1 7.58384 2.89034 0.239575
1 8.84824 2.19061 0.144102
1 10.0971 2.91244 0.0928185
1 11.3542 2.18424 -0.00850422
1 12.6388 2.9356 0.0500527
1 13.9109 2.20014 -0.0273793
1 15.1598 2.91934 -0.0354187
1 16.4137 2.16806 -0.00980359
1 17.6935 2.92092 -0.0204489
1 18.9428 2.19052 -0.0278152
1 20.2239 2.91587 -0.0388934
1 21.4626 2.20815 0.175522
1 22.7155 2.91033 0.350885
1 23.954 2.1713 0.446815
1 25.2133 2.90056 0.631134
1 2.52761 4.37586 0.710545
1 3.82837 5.12171 0.572978
1 5.08698 4.38166 0.494219
1 6.33454 5.10829 0.308025
1 7.57904 4.37531 0.142429
1 8.82916 5.08216 0.122332
1 10.1026 4.36078 0.117884
1 11.3606 5.08877 0.0690026
1 12.5926 4.37884 0.0105401
1 13.8782 5.10944 -0.0529488
1 15.1448 4.36371 0.0284855
1 16.3952 5.09493 0.0675401
1 17.6676 4.35791 0.0706805
1 18.8954 5.11261 -0.00231126
1 20.1969 4.3438 0.0419585
1 21.4013 5.04522 0.365799
1 22.6619 4.34892 0.512715
1 23.9428 5.07827 0.616484
1 25.1932 4.32069 0.713473
1 26.506 5.12304 0.735614
1 3.84944 6.6175 0.507074
1 5.08043 7.34868 0.380482
1 6.30869 6.6036 0.363975
1 7.55013 7.27271 0.0805375
1 8.80879 6.53168 0.0998046
1 10.0869 7.269 0.0800049
1 11.3532 6.53939 0.0358661
1 12.6049 7.3047 -0.15248
1 13.92 6.57724 -0.0489532
1 15.1329 7.30345 -0.0661975
1 16.3958 6.54128 -0.0886716
1 17.6713 7.27852 -0.108713
1 18.9169 6.56197 -0.0707446
1 20.1408 7.31035 0.166059
1 21.4183 6.52401 0.417329
1 22.6795 7.30354 0.511369
1 23.9288 6.57996 0.563692
1 25.2023 7.3148 0.478579
1 26.5114 6.52071 0.458016
1 27.7748 7.29388 0.466859
1 30.2592 8.81179 0.264661
1 6.30275 9.4945 0.0302936
1 7.5526 8.70528 -0.129397
1 8.82585 9.43356 -0.275666
1 10.0521 8.67604 -0.261014
1 11.3064 9.39964 -0.360541
1 12.6055 8.7216 -0.267907
1 13.8736 9.44887 -0.176666
1 15.1201 8.71783 -0.102899
1 16.3727 9.44698 -0.0746008
1 17.655 8.68436 -0.0454391
1 18.8841 9.46689 0.151946
1 20.1453 8.75496 0.224728
1 21.4054 9.48523 0.279934
1 22.6655 8.74634 0.32916
1 23.9124 9.47895 0.244582
1 25.2283 8.76578 0.446853
1 26.4711 9.49235 0.394584
1 27.7676 8.77662 0.370337
1 29.0339 9.49671 0.178881
1 6.30807 10.9227 -0.145942
1 7.55926 11.6087 -0.286337
1 8.81034 10.8862 -0.335428
1 10.0345 11.6258 -0.511032
1 11.2862 10.8512 -0.441193
1 12.5783 11.6224 -0.372959
1 13.8741 10.8974 -0.181818
1 15.1216 11.6137 -0.131665
1 16.3906 10.8697 0.0391589
1 17.6674 11.62 0.0732185
1 18.9247 10.8948 0.137756
1 20.1813 11.6548 0.166517
1 21.4375 10.9571 0.225718
1 22.6647 11.6604 0.144679
1 23.9356 10.9209 0.149565
1 25.1725 11.6406 0.0486674
1 26.4492 10.9369 0.186984
1 27.722 11.6755 0.0154742
1 29.0064 10.9395 0.0476279
1 30.2525 11.6566 -0.106241
1 32.7699 13.0942 -0.416469
1 8.78819 13.8299 -0.45574
1 10.0339 13.0701 -0.5021
1 11.3407 13.809 -0.461314
1 12.5868 13.0368 -0.435419
1 13.8787 13.824 -0.47982
1 15.1212 13.1066 -0.303339
1 16.418 13.8237 -0.297135
1 17.652 13.0892 -0.0167149
1 18.9183 13.8283 0.15855
1 20.1631 13.098 0.10328
1 21.4403 13.835 -0.0841971
1 22.6701 13.112 -0.0589446
1 23.9367 13.8298 -0.16838
1 25.1791 13.1056 -0.186612
1 26.46 13.8379 -0.227997
1 27.7143 13.1146 -0.141325
1 28.9864 13.8147 -0.290091
1 30.2483 13.0878 -0.361163
1 31.4727 13.8273 -0.437035
1 8.80823 15.291 -0.449154
1 10.0906 16.0057 -0.420915
1 11.357 15.2557 -0.397571
1 12.6275 16.0335 -0.453995
1 13.9051 15.2963 -0.490314