LAMMPS (8 Feb 2019)
OMP_NUM_THREADS environment is not set. Defaulting to 1 thread. (../comm.cpp:87)
  using 1 OpenMP thread(s) per MPI task
# 3D copper block simulation
boundary        p p p
units           metal
atom_style      atomic

# geometry
read_data	    data.pos
  triclinic box = (0 0 0) to (50.44 43.6823 4.11843) with tilt (25.22 0 0)
  1 by 1 by 1 MPI processor grid
  reading atoms ...
  800 atoms

mass		    *   12.0107

# EAM potential
pair_style      tersoff
pair_coeff      * * SiC.tersoff C
Reading potential file SiC.tersoff with DATE: 2011-04-26
neighbor        2. nsq
neigh_modify    every 1 delay 0 check yes

#Langevin random seed
variable        dt equal 2e-3
variable        r  equal 57085
variable        T  equal 300
variable        dT equal "v_dt * 100"

timestep        ${dt}
timestep        0.002


min_style       cg
minimize        1e-6 1e-6 10000 10000
Neighbor list info ...
  update every 1 steps, delay 0 steps, check yes
  max neighbors/atom: 2000, page size: 100000
  master list distance cutoff = 4.1
  ghost atom cutoff = 4.1
  1 neighbor lists, perpetual/occasional/extra = 1 0 0
  (1) pair tersoff, perpetual
      attributes: full, newton on
      pair build: full/nsq
      stencil: none
      bin: none
Per MPI rank memory allocation (min/avg/max) = 3.959 | 3.959 | 3.959 Mbytes
Step Temp E_pair E_mol TotEng Press 
       0            0    -5914.079            0    -5914.079    17918.198 
       1            0    -5914.079            0    -5914.079    17918.198 
Loop time of 0.012023 on 1 procs for 1 steps with 800 atoms

0.0% CPU use with 1 MPI tasks x 1 OpenMP threads

Minimization stats:
  Stopping criterion = energy tolerance
  Energy initial, next-to-last, final = 
        -5914.07896039     -5914.07896039     -5914.07896039
  Force two-norm initial, final = 4.02845e-11 1.53761e-11
  Force max component initial, final = 5.28955e-12 1.61959e-12
  Final line search alpha, max atom move = 1 1.61959e-12
  Iterations, force evaluations = 1 2

MPI task timing breakdown:
Section |  min time  |  avg time  |  max time  |%varavg| %total
---------------------------------------------------------------
Pair    | 0.007009   | 0.007009   | 0.007009   |   0.0 | 58.30
Neigh   | 0          | 0          | 0          |   0.0 |  0.00
Comm    | 0          | 0          | 0          |   0.0 |  0.00
Output  | 0          | 0          | 0          |   0.0 |  0.00
Modify  | 0          | 0          | 0          |   0.0 |  0.00
Other   |            | 0.005014   |            |       | 41.70

Nlocal:    800 ave 800 max 800 min
Histogram: 1 0 0 0 0 0 0 0 0 0
Nghost:    1410 ave 1410 max 1410 min
Histogram: 1 0 0 0 0 0 0 0 0 0
Neighs:    0 ave 0 max 0 min
Histogram: 1 0 0 0 0 0 0 0 0 0
FullNghs:  14400 ave 14400 max 14400 min
Histogram: 1 0 0 0 0 0 0 0 0 0

Total # of neighbors = 14400
Ave neighs/atom = 18
Neighbor list builds = 0
Dangerous builds = 0

# initialize
velocity        all create $T 28459 rot yes dist gaussian mom yes
velocity        all create 300 28459 rot yes dist gaussian mom yes


reset_timestep  0


# fixes
# fix             1 all nve
fix             2 all langevin $T $T ${dT} 73504 zero yes
fix             2 all langevin 300 $T ${dT} 73504 zero yes
fix             2 all langevin 300 300 ${dT} 73504 zero yes
fix             2 all langevin 300 300 0.2 73504 zero yes
fix             3 all nve
fix             4 all phonon 10 50000 1000000 map.in Graphene nasr 50

# output
#                    1    2    3  4  5     6   7
thermo_style    custom step temp pe ke press pxx pyy
thermo          100

restart         1000000 restart.one restart.two

dump            1 all xyz 50000 dump.graphene.xyz

# execution
run 	        6000000
Per MPI rank memory allocation (min/avg/max) = 4.783 | 4.783 | 4.783 Mbytes
Step Temp PotEng KinEng Press Pxx Pyy 
       0          300    -5914.079    30.983657    21565.231    30615.963    30564.167 
     100     237.3484   -5887.7894    24.513071    14516.533    21814.279    22153.387 
     200     285.0359   -5882.7368    29.438182    16322.532    24080.048    24743.435 
     300    291.52327    -5880.822     30.10819    12663.197    21677.527    16709.874 
     400    294.83729   -5878.9717    30.450458    11833.169    18748.756    16607.492 
     500    306.52117   -5878.8861    31.657156    10339.529    18092.576    13560.488 
     600    300.02998   -5879.3846    30.986753    11910.988    16053.528    19952.734 
     700    297.04341   -5879.4036    30.678304    10374.158     16938.29    14721.915 
     800    289.85193   -5881.9744    29.935576    8499.5355    17040.117    8631.2635 
     900    302.45632    -5881.271    31.237343    9352.6205    11826.083    16310.315 
    1000    301.57401   -5880.1932    31.146219    11761.133    17661.777    17537.285 
    1100    298.92685   -5879.2252    30.872823     12424.08    19741.471    18083.367 
    1200    309.16536   -5879.1259    31.930245    12827.273    22116.731    16390.514 
    1300    298.88692   -5879.6977    30.868699    10912.567    19338.737      13555.5 
    1400    294.94176   -5880.2538    30.461247    8830.8271    14634.066    11819.201 
    1500    312.53051   -5879.0898    32.277794    9254.7474    21626.788    6331.1825 
    1600    302.11931   -5879.8346    31.202536    11027.417    19401.659    13335.382 
    1700    297.03065   -5878.8597    30.676985    10698.337    17732.234    14617.094 
    1800    298.09768   -5878.9868    30.787188    11241.275    18819.677     14532.37 
    1900    298.67404   -5881.2252    30.846713    9391.8659     13964.41    14351.344 
    2000     297.7812   -5881.3399    30.754502    10266.124    13899.078    17025.485 
    2100    292.05532   -5880.8028     30.16314    11690.283     14921.56    20084.271 
    2200    292.77879   -5881.2801    30.237859    10242.662    9834.6571    20540.767 
    2300    289.00028   -5881.0219    29.847618     7007.181     5268.288    16052.859 
    2400    299.86213    -5881.742    30.969418    7190.4184    9306.0901    12464.679 
    2500    298.06354   -5881.2094    30.783662    8725.1878    10722.252    15309.293 
    2600    298.02621   -5881.2698    30.779806    10006.291    11966.752     18133.45 
    2700    293.38516   -5879.6406    30.300484    11845.259     11132.23    24489.465 
    2800    292.22396    -5879.054    30.180556    11409.941    14881.103    19527.644 
    2900      312.993   -5881.9645    32.325559    8963.2016    12479.904    13932.152 
    3000    292.39546   -5880.9072    30.198269    6887.0738    8143.9432    12736.488 
    3100     301.0196   -5882.2595     31.08896    6419.1622    7879.4819     11207.86 
    3200    290.08055   -5880.3391    29.959187    5483.6524    7123.0717    9672.2594 
    3300    293.23735    -5879.988    30.285218     4983.236    5797.2994    9324.4966 
    3400    284.39972   -5880.9652    29.372478    5995.7443    7339.7593    10929.346 
    3500    290.74384   -5881.8016    30.027692    6879.8815    4666.1455     16012.82 
    3600    283.78055   -5880.0393     29.30853    6763.1622     2772.315    17910.999 
    3700    291.96323   -5881.0624    30.153628    8260.7595    6509.9354    18320.334 
    3800    309.08466    -5881.195     31.92191    7170.2226    8112.8955    13259.771 
    3900    308.24067   -5880.4731    31.834743    7091.0528    7246.6653    14239.857 
    4000    307.90971   -5880.0769    31.800563    6722.4001     8619.652     11373.51 
    4100    300.20812   -5878.4079    31.005151    7312.4245    4246.3768    17973.088 
    4200     321.5992   -5881.6569    33.214397    10117.937    13998.649    16182.829 
    4300    307.62565   -5879.6209    31.771225    7953.2779    6386.8768    17177.651 
    4400    290.93366   -5880.2066    30.047296    7876.2949    6900.4675     17157.48 
    4500    308.13492   -5880.7978    31.823822    6935.0633    5570.6677     14882.37 
    4600    314.20291   -5879.6392    32.450517    5678.1296    4876.8715     12078.39 
    4700    311.47414    -5879.031    32.168693    4808.8386    2575.3395    11890.081 
    4800    295.21045   -5879.9766    30.488997     7214.002    7040.3441    14503.704 
    4900    295.06346   -5879.5942    30.473816    7027.5826    4870.7172    16483.849 
    5000    317.62217   -5882.4377    32.803655    8031.0562    7585.1127    15648.157 
    5100    298.32238   -5880.5379    30.810394    4708.1866    4223.3191    10271.836 
    5200    310.20926   -5880.9018    32.038057    3391.5665    5388.3386    4968.2913 
    5300    295.71623   -5879.4609    30.541234    4305.2888    11111.743    2106.5089 
    5400    305.05374   -5880.0461    31.505601    6041.5085    9739.9962    8390.9513 
    5500    308.53465   -5880.7409    31.865105    8551.3519    12788.611    13071.016 
    5600    302.94594   -5878.4284     31.28791    9493.5127    15515.105    13515.747 
    5700    294.21328   -5879.3161    30.386011    9693.5833    16364.301    12918.596 
    5800    303.71793   -5879.6936     31.36764    10192.556    17915.393    12506.599 
    5900    302.37917   -5881.0455    31.229374    9490.6029    11345.088    16964.468 
    6000    302.62127   -5879.7795    31.254378    7102.7364    13977.043    7417.3019 
    6100    309.19755   -5880.9078    31.933569     6953.591    15539.707     5280.101 
    6200    305.32602   -5881.3021    31.533722    7751.4304    12189.628    10951.968 
    6300    293.82829   -5880.5582    30.346249    7529.5345    8716.2766     14132.86 
    6400    297.35453   -5880.6359    30.710436    8824.5531    13898.291    11914.992 
    6500    310.09926   -5878.7846    32.026697    10561.571    16853.769     14842.13 
    6600    305.11462   -5878.7527    31.511889    10616.337    15473.208    15752.165 
    6700    299.47397   -5880.0598    30.929329    8197.3037    15467.858    8962.5094 
    6800    314.47645   -5880.5914    32.478768    7064.6546    14296.917    7422.9799 
    6900    302.69661   -5881.2672     31.26216    9368.3535     18457.58    10014.339 
    7000    280.60411   -5880.1239    28.980471    8163.9379    21260.428     3966.213 
    7100     305.4758   -5879.8148    31.549191    10096.159     21079.07    9412.3087 
    7200    301.55188   -5880.3462    31.143933    9312.3493    17376.185    10380.597 
    7300      306.006   -5880.1689     31.60395    7808.6148    20539.477    3149.1666 
    7400    290.52417   -5879.5981    30.005004    7299.8706    17247.218    4861.3513 
    7500    296.91324   -5881.4264     30.66486    9719.0345    17167.706    12192.879 
    7600    299.90296   -5880.9498    30.973635    10436.093    19859.488    11627.892 
    7700    301.22157   -5880.5086    31.109819    11216.227    19780.746    13747.673 
    7800    287.68179   -5880.9753    29.711446    11375.641     16980.57    17348.132 
    7900    295.91428   -5878.5139    30.561688    12013.309    16799.927    19698.491 
    8000     285.4538    -5880.523    29.481342    11622.521    20491.401    14441.193 
    8100     275.4516     -5880.41    28.448327    11127.021    22658.153    11283.911 
    8200    310.15871   -5882.5792    32.032837    10401.087    21491.461    9414.7519 
    8300    299.78325   -5881.6508    30.961272    9657.6298    15154.353    13809.161 
    8400    301.37994   -5882.4454    31.126176    9395.4778    13358.891    14341.904 
    8500    302.52071   -5880.1642    31.243993    9574.5521     14754.59    14117.501 
    8600    297.55375   -5879.9546    30.731011    11004.648    16499.389    16649.701 
    8700    302.70442   -5880.1171    31.262966    12877.915    21166.208    17274.045 
    8800    295.66691   -5879.4967     30.53614    11327.878    15999.624    18356.882 
    8900    300.70466   -5880.3882    31.056433    11283.292    14761.865    18979.444 
    9000    296.88909   -5880.2389    30.662365    9069.5816    13499.685    13721.748 
    9100    299.76312   -5881.8364    30.959192    8200.8069    12002.247     12343.94 
    9200    292.54151   -5880.7235    30.213352    8489.1149    15245.838    10041.992 
    9300    292.36766    -5880.907    30.195398    6886.2362    15253.123    5949.3402 
    9400     297.1743   -5881.7243    30.691822    7134.8642    14932.772    6524.1748 
    9500    293.23401   -5881.1102    30.284873    7090.5583    17481.909     3862.066 
    9600    309.04307   -5879.1188    31.917615    6536.9942    13986.697    5578.8768 
    9700    305.08219   -5879.9193     31.50854    5974.5415    11365.984    6589.1334 
    9800    311.22811   -5879.5275    32.143283    8273.0566    18166.368    6203.2853 
    9900    317.55704   -5880.0366    32.796928     6639.782    11836.098    8222.2885 
   10000    301.37785   -5879.4902    31.125959    5285.7275     6563.748    9399.0084 
   10100    305.72878   -5881.7824    31.575319    8753.9677    13823.602    11947.796 
   10200    300.68406   -5880.3526    31.054305    7455.0294    15918.551    6810.7559 
   10300    296.20837   -5881.2341    30.592062    9487.9722    18891.842    9385.8335 
   10400    293.77147   -5880.7335    30.340381    7901.6251    15146.423    9001.4091 
   10500    289.35106    -5881.982    29.883847    5995.6939    10854.804    7564.9223 
   10600    289.88772   -5881.1411    29.939272     6996.379    10358.945    10822.954 
   10700    293.11309   -5880.9579    30.272384    8242.2635    13501.308    11081.751 
   10800    281.66874   -5881.5181    29.090425    10025.086    15718.721    14082.327 
   10900    298.52073   -5882.1061     30.83088    10236.877    15455.026    14828.784 
   11000    312.43218   -5881.4371    32.267638    11667.086    14010.389    20880.718 
   11100     287.1028   -5880.1469    29.651649    9466.5525    13739.224    14930.896 
   11200    304.39704   -5881.1722    31.437778    10055.184    17569.718    12657.249 
   11300    291.96628   -5879.3341    30.153944    8300.9979    19836.962    5502.1291 
   11400    303.97912   -5879.1912    31.394615     9027.248    18887.821    8814.5262 
   11500     312.8738   -5880.7665    32.313248    11212.748    19131.292    13884.174 
   11600    316.72333   -5878.5925    32.710823    7859.5007    16791.918    7110.7076 
   11700    304.68736   -5878.2183    31.467762    9995.5874    12625.758    17777.609 
   11800    308.28137   -5878.9666    31.838947    12699.129    20584.912    17074.083 
   11900    313.74934   -5877.8831    32.403673    11403.766    15919.208    17858.848 
   12000    318.90633   -5879.3633    32.936281      9572.94    10687.765    18058.495 
   12100    308.14009   -5879.6575    31.824356    11527.699    17808.877    16927.808 
   12200     300.0797   -5879.4875    30.991888    12239.784    19538.367    17092.197 
   12300    305.39927   -5881.9017    31.541287    13085.977    19700.644    19136.714 
   12400    302.83265   -5881.3755    31.276209     12854.28    22007.216    16213.703 
   12500    306.17955   -5880.0274    31.621873    13170.223    20824.606    18748.307 
   12600     296.3067   -5879.1099    30.602217    13195.544    20753.407    18961.628 
   12700    287.06162   -5881.5603    29.647395    13386.518    19791.584    20249.555 
   12800    320.46289   -5881.9439    33.097041    13801.692    14955.147    25991.317 
   12900    309.88934    -5879.989    32.005017    11731.839    13378.546    21664.959 
   13000    292.29854   -5880.8142    30.188259    12350.432    13308.321    23770.658 
   13100    288.77947   -5881.9942    29.824813    12720.228    15312.268    22622.407 
   13200    283.32236   -5880.0213    29.261209    9783.2317    13889.929    15952.179 
   13300    297.04611   -5880.7074    30.678583     8138.612    13205.161    11300.105 
   13400     304.6538   -5882.0289    31.464296    9191.7402    5717.7298    21386.428 
   13500    302.97404   -5879.9551    31.290812    7529.1607    4184.0043    18652.208 
   13600    300.71642   -5878.5305    31.057648    7196.3131     1253.423    20144.154 
   13700    306.25279   -5880.9334    31.629438    4529.2508   -1528.4662    15094.921 
   13800    300.73698   -5880.9708    31.059771    4883.2538    2149.6512    12857.609 
   13900    290.79209   -5879.1412    30.032675     4550.126    1839.1109    11998.819 
   14000    314.09336   -5880.2958    32.439202    6557.1462     10577.56    9435.9493 
   14100    303.92252   -5882.0037     31.38877    9042.2808    13485.681    13720.487 
   14200     316.5273   -5880.6899    32.690578    8102.0816    11178.495    13024.913 
   14300    317.91355   -5880.3228    32.833748    7516.8431    13117.067    9429.7776 
   14400     300.2547   -5881.0632    31.009961    10518.122    18519.971    12579.637 
   14500    301.01293   -5881.3578    31.088271    9781.0666    17235.156    12258.075 
   14600    292.69507   -5878.8953    30.229212    7419.8476    14160.421     8610.161 
   14700    300.99569   -5879.6895    31.086491    6646.6478    10792.487    8970.6805 
   14800    285.02993    -5879.645    29.437565    7160.2271    13395.504    8133.9447 
   14900    292.82316   -5881.6683    30.242441    7939.5596    15288.362    8833.9423 
   15000    303.41989   -5880.7466    31.336859    10059.109    15151.861    15081.583 
   15100    297.75316   -5879.7821    30.751606    10326.166      16127.5    15310.326 
   15200    285.37146   -5879.3676    29.472838    11381.044    12101.153    22171.901 
   15300    292.21874   -5879.8298    30.180017    10826.698    13938.773    18963.938 
   15400    299.40778   -5879.8592    30.922493    11039.419    15236.858     18010.31 
   15500    286.97796   -5879.4611    29.638756    11268.316    14850.725    18828.495 
   15600    289.68001    -5880.224     29.91782    10238.227     18588.46    11983.856 
   15700    293.89963   -5880.9302    30.353618    12864.217    18500.236     19830.13 
   15800    291.60385   -5880.0174    30.116512     8373.498    14504.901    10611.028 
   15900    302.41153   -5879.8774    31.232717    10232.484    13736.225    16986.452 
   16000    298.70578   -5878.9893    30.849992    8430.7424    14190.052    11101.015 
   16100    294.90424   -5880.4289    30.457372    10848.047    16084.593    16927.369 
   16200    297.91581   -5880.1531    30.768404    10482.193    14083.963    17597.585 
   16300    293.68214   -5879.3149    30.331155    9614.0457    11226.723    18103.558 
   16400    291.01739   -5881.3428    30.055943      9580.95    13704.993    14973.807 
   16500    294.03861   -5880.8496    30.367971    9254.6989    13952.002    13806.996 
   16600    296.44493    -5881.709    30.616493    10095.529    15996.389     14681.21 
   16700    295.39322   -5882.5473    30.507874     10208.77    16065.236    14394.254 
   16800     294.3431   -5881.0663    30.399419    9491.4536    11137.984    17233.851 
   16900    300.13768    -5880.676    30.997876    9196.3127    12442.864    15181.493 
   17000    296.72818   -5880.1412    30.645747    10932.432    14605.079    17957.922 
   17100    305.46745   -5881.3998    31.548328    9641.4536    13111.807    16196.557 
   17200    294.40915   -5881.2673     30.40624    9467.6385     12231.33    16485.406 
   17300    282.70251   -5878.9196    29.197192    11032.981    14979.627    18601.383 
   17400    308.89265   -5880.8615    31.902079    10457.595    13771.267    17679.326 
   17500    298.65046   -5880.6417    30.844278    11724.299     16374.89    18692.319 
   17600    297.55481    -5879.925     30.73112    9022.9832    15964.027    11305.945 
   17700    289.03576   -5879.4133    29.851282    10761.063     13778.65    18337.337 
   17800    305.21858   -5880.7829    31.522625    11294.679    12574.294    21298.942 
   17900    293.38647   -5881.3439    30.300619    10479.438    11878.346    19614.442 
   18000    297.95898   -5881.8043    30.772863    10738.776    13963.213    18112.693 
   18100    304.57931   -5880.1131    31.456602    10231.199    12041.644    18380.011 
   18200    301.31829   -5880.2723    31.119808     6966.475     7392.104    13562.945 
   18300    294.71606   -5880.8615    30.437937    7015.9245    8088.9232    13395.928 
   18400    286.37059   -5880.5536    29.576026    8683.8149    12091.896    14117.748 
   18500    299.74963   -5881.3578    30.957798    8901.8899    12899.066    13656.312 
   18600    288.38846   -5880.2729     29.78443    6327.5867    13540.035     5651.493 
   18700    298.33087   -5880.9334    30.811271    4300.7941    10653.655    2472.0101 
   18800    304.93144   -5881.3758     31.49297    4765.3701    11650.462    3023.0409 
   18900    308.48299   -5880.7246     31.85977    6121.1898    14670.683    3625.5706 
   19000    297.65869   -5878.9492    30.741849    4421.2947    14724.312   -1103.1485 
   19100    311.47728   -5880.2282    32.169017    6292.7126    15543.718    3194.8096 
   19200    308.29632   -5880.5483    31.840491    3943.7549    15260.596   -3368.8318 
   19300    307.30017   -5879.0498     31.73761    6115.2738    15978.845    2249.3708 
   19400     313.7454   -5878.5812    32.403266    9504.3778    18151.624    10260.114 
   19500     313.3401   -5880.3899    32.361407    11505.812    19693.676    14521.191 
   19600    294.54783   -5879.9818    30.420563    8528.5228    15879.335    9814.7947 
   19700    304.41486   -5878.6881    31.439619    10139.498    16159.121    13955.647 
   19800    297.21565   -5881.5631    30.696092    6399.9689    14478.747    5100.0746 
   19900    291.81861    -5878.276    30.138693    7273.0234    13628.516    8408.5028 
   20000    299.27926   -5881.1792     30.90922    8064.4086    13251.789    11084.078 
   20100    301.46533   -5879.6166    31.134995    8678.6624     10337.74    15692.409 
   20200    310.88412   -5880.0797    32.107756     9357.797    12534.622    15779.248 
   20300    307.91176   -5880.2317    31.800774    10435.958    20304.469    10816.199 
   20400    317.55649   -5880.3612    32.796871    11233.393    22380.508    11193.464 
   20500    292.78808   -5880.7775    30.238818    12045.009    24437.446    11493.985 
   20600    305.26131   -5880.9192    31.527039    12702.903    24442.256    13540.446 
   20700    305.88744   -5880.4413    31.591705    12800.808    22498.921    15960.837 
   20800    317.09698   -5880.4058    32.749413    10365.947    21606.923    9652.5402 
   20900    295.99564   -5879.3414    30.570091    9589.8145     20845.03    8287.3287 
   21000     298.6457   -5882.3384    30.843786    10034.195     19352.19    10575.295 
   21100    300.67041    -5880.394    31.052896    9302.0253    16625.276    11288.096 
   21200    298.14176   -5880.9316     30.79174    7177.8415    16096.684    5596.0783 
   21300    304.36705   -5880.2007     31.43468    6111.6523    14707.704    3309.1223 
   21400    307.91896   -5881.5254    31.801518    7559.3483    15591.072    7213.7157 
   21500    310.56612   -5878.6479    32.074914    8025.9915    14289.588    9490.5275 
   21600    305.68538   -5880.4168    31.570836    6582.0673    6804.6134    12587.141 
   21700    299.95762   -5879.3748     30.97928    6489.7151    6980.7818    12192.223 
   21800    310.40455   -5879.3485    32.058227    7137.6694    5901.2109    15522.228 
   21900    312.97959   -5881.1501    32.324174    7453.3922    9635.9815    12659.529 
   22000    305.33391   -5879.1851    31.534537    6106.4408    7774.7533    10949.193 
   22100    309.78144   -5879.8986    31.993872    5672.3594    9691.6122    7382.9504 
   22200    289.18267   -5880.1506    29.866455    7684.4953     14008.49    8903.9939 
   22300    287.56049   -5878.6633    29.698918    8712.4455    12304.704    14482.687 
   22400    296.97727   -5881.2964    30.671473    8008.9473    16777.509    7437.1868 
   22500    287.04659   -5882.5542    29.645843    8499.3252     16076.99    9528.1153 
   22600    302.17862    -5881.101    31.208663    11786.965    16436.328    18468.589 
   22700    277.40803   -5878.1992    28.650384    8137.1353    7216.1905    17727.758 
   22800    286.43341   -5880.9792    29.582515    8465.0003    14862.767    10795.609 
   22900    302.80324   -5882.1567    31.273172    8861.6805    11719.304    14728.315 
   23000    301.18277   -5881.8087    31.105812    8626.6132     7346.842    18471.287 
   23100    284.37264    -5881.284     29.36968    7131.5955    7570.5236    14338.628 
   23200    288.73084   -5879.5307    29.819791    9079.7548    12256.072    15205.267 
   23300    297.45257   -5882.7808    30.720561    10240.847    12250.342      18701.7 
   23400    294.42823   -5880.7594    30.408211     10213.84     12684.07    18565.021 
   23500    281.37074   -5880.0543    29.059648    9284.6463    10927.547    17299.454 
   23600    304.28544   -5879.5413    31.426252    9100.4187    12275.948    15398.245 
   23700    300.95541   -5879.9502     31.08233    9347.2742    12301.784    15584.411 
   23800    298.16286   -5880.9777    30.793919    8578.3179    7162.4036    18347.906 
   23900    311.04431   -5880.4051      32.1243    6328.2641    6064.4472    12961.177 
   24000    293.92609   -5881.9724     30.35635    6293.2923    8379.4603    10401.353 
   24100     304.8807   -5879.1651     31.48773    6648.9316    8362.1209    11735.967 
   24200    296.95032   -5879.6078     30.66869    9105.8034    15052.746    12309.804 
   24300     312.8557   -5877.8722    32.311379    9041.5852    11731.732    15438.405 
   24400     309.2666   -5879.0953    31.940701    9066.5229    7062.5012    19935.712 
   24500    292.44041   -5880.7824    30.202911    6011.5006    2474.7306    15625.035 
   24600    290.01324    -5880.648    29.952235    5608.0595    1858.0064    15377.579 
   24700    301.01762   -5878.6596    31.088756    5010.2329   -2537.8558    17562.109 
   24800    309.14344   -5880.3741    31.927981    6793.4121    4073.7091    16645.223 
   24900     307.1271   -5881.3944    31.719736    7149.5428    7696.5128    13714.511 
   25000    299.92111   -5881.1604    30.975509    7279.3632    9960.1855    11819.759 
   25100    292.45928     -5879.01     30.20486     7476.277    13594.856    9334.1142 
   25200    299.64037   -5879.9889    30.946515    9243.3159    16451.812    11760.469 
   25300    295.87678   -5879.7149    30.557815    7411.9661     9894.196    12462.513 
   25400    300.57804   -5882.0751    31.043356    6657.6156    5622.7887    14106.792 
   25500    291.70076   -5879.5734     30.12652    8359.1122    5229.8083    20165.942 
   25600    309.30942   -5881.7241    31.945123    8806.2008    7417.1684    18723.722 
   25700    300.67188   -5879.2947    31.053048    8311.1327    9975.8835    14969.487 
   25800    309.95591   -5878.1256    32.011892    8054.5172    13168.271    11792.018 
   25900    308.46385   -5882.1066    31.857794    11779.083    14960.204    20354.464 
   26000    289.50005   -5880.3197    29.899234    11109.128    14883.779    18359.331 
   26100    288.06187   -5881.2485      29.7507    10452.913    16419.542    15139.516 
   26200    296.24684   -5881.8305    30.596035    11325.011    15592.399    17669.098 
   26300    308.03682   -5881.1838     31.81369     10788.38    12604.722    19954.147 
   26400    306.08069    -5881.187    31.611664    11451.398    16017.299    18024.745 
   26500    301.92749   -5881.8298    31.182726    10252.101    12381.118    18159.896 
   26600    286.85428    -5881.198    29.625982    8948.7663     5001.645    21866.757 
   26700    297.80742   -5882.5933     30.75721    8774.9937    6503.8576    19695.997 
   26800    301.18443   -5881.2541    31.105983    10621.975    7892.0115    23622.236 
   26900    299.22403   -5881.0396    30.903515    11064.476    13499.882    19391.762 
   27000    303.34268   -5880.9166    31.328885    9356.7181     8810.159    19541.546 
   27100    299.64993   -5879.9225    30.947502    8762.5263     5488.588    20771.936 
   27200    302.42409   -5879.6589    31.234014    11577.319    12789.958    21935.709 
   27300    309.78191    -5879.969    31.993921    8008.4207    1991.7681    21932.289 
   27400    305.00506   -5880.0853    31.500574    9058.5731    9799.5151    17465.149 
   27500    296.51947   -5880.1719    30.624192    10152.438    11268.502    19064.264 
   27600    294.24455   -5880.6192     30.38924    11629.308    11434.451    23726.425 
   27700    289.46385   -5880.6118    29.895495    12221.609     12703.31    23660.586 
   27800    284.85285   -5880.6393    29.419276     10890.11    16484.675    16376.282 
   27900    300.22931   -5879.5416    31.007339    8894.2718    15365.457    11527.639 
   28000    309.74903   -5880.5456    31.990526    13094.335    17341.004    21944.958 
   28100    304.58316   -5881.2889       31.457     12252.71    20529.304    16085.073 
   28200    317.43926   -5880.6341    32.784764    11223.181    18310.382    15190.971 
   28300    303.12564   -5880.0986     31.30647    11688.231    13987.081    21641.649 
   28400    295.72373   -5879.3822    30.542009    10930.026    13646.663    19567.722 
   28500    302.29734    -5881.309    31.220924    11933.495    18876.071    16756.679 
   28600    299.26545   -5881.4921    30.907793    10970.039    15923.609    16918.124 
   28700    310.88943   -5879.2891    32.108304    9340.8413    12838.781    15168.221 
   28800    315.04022   -5881.4392    32.536993    9246.9309     13169.31    14239.341 
   28900    306.49274   -5882.3212    31.654219    6424.5374    13207.253    6254.1609 
   29000    295.37917    -5882.392    30.506422    5448.2326    9177.5071    7215.0924 
   29100    300.31694   -5879.9899     31.01639    8500.6717    13849.761    11353.435 
   29200     294.2728   -5879.8442    30.392158    9388.9217     8666.723    19791.579 
   29300    315.78863   -5880.1454    32.614289    7502.0775    7423.0136    15497.268 
   29400    302.17142   -5878.2616    31.207918    8791.0263    7487.1216    18884.756 
   29500    310.63335    -5880.743    32.081857    7833.1297    12076.076    11427.194 
   29600    308.16377   -5881.8273    31.826801    8819.0382    13588.305    12760.037 
   29700    298.84812    -5879.437    30.864692    8925.2555    11642.804    15804.644 
   29800    316.09788   -5882.5009    32.646227    9135.2777    11253.784    15530.427 
   29900      308.841   -5881.2716    31.896745    7968.4554    11594.232     11916.68 
   30000    308.70716   -5880.0997    31.882922    8048.6258    8635.6392    15304.691 
   30100    311.85277   -5880.2416    32.207798    8564.6599    11850.629    13789.985 
   30200     312.9215    -5880.806    32.318174    8655.8859    8921.1538    17027.953 
   30300    284.17076    -5880.819    29.348831    10186.896    10830.107    19812.215 
   30400    306.86413   -5881.9197    31.692576    7814.0612    8123.5895    15190.018 
   30500    304.84844   -5880.7197    31.484398    9870.9966    16167.227    13644.827 
   30600    297.09775   -5880.3695    30.683915    6084.5551    8555.4279    9865.1823 
   30700    305.35056   -5878.8205    31.536256    7060.1659    12203.986    9260.5426 
   30800    308.70867   -5880.0897    31.883079    8886.7879    14822.726    11998.762 
   30900    298.41331   -5881.4086    30.819786    10693.835    13289.292    18622.729 
   31000    285.47322   -5881.4778    29.483347    9644.2809    10138.082    19033.075 
   31100    288.85358   -5879.9195    29.832467    11031.204    14520.312    18289.606 
   31200    297.81829   -5879.6788    30.758332    8197.5464    10121.428    14790.373 
   31300    301.93356    -5880.534    31.183353    6060.2171    7074.2507    11193.681 
   31400    303.72555   -5881.3728    31.368427    8815.3249      6287.79    19751.847 
   31500    303.74426   -5881.6999    31.370359    11398.046     10811.22    22823.547 
   31600    290.42944   -5882.7775     29.99522     10228.01    10628.179    20270.082 
   31700    280.23975   -5880.3955    28.942841    10728.643    14738.927    17539.688 
   31800    320.45749   -5881.2561    33.096483    9264.6392    12536.794    14961.386 
   31900    290.26097   -5881.6739     29.97782    7603.0136     11700.34    11027.499 
   32000    307.78876   -5879.9154    31.788071    4953.7076    4536.3613    10755.033 
   32100    290.96601   -5880.7568    30.050637     4806.589    2700.5416    12203.029 
   32200    284.68998   -5880.7901    29.402455    4834.3923    2376.4753    12554.592 
   32300    309.31714   -5881.3208    31.945921    6538.0755    4859.2038    14485.926 
   32400    295.53427   -5880.6645    30.522442    6089.4805    6950.8306    11738.226 
   32500     299.2789   -5880.7667    30.909182    7917.4005     11917.39    11821.227 
   32600    283.42531   -5880.3031    29.271842      7134.62    7717.7289    14159.514 
   32700     291.4848   -5881.9896    30.104217    8998.0984    7136.7405    19763.311 
   32800    293.07522   -5880.8203    30.268473    9234.1948    11088.151    16993.325 
   32900    303.39223   -5880.1935    31.334002    6196.2076     7604.318    11568.465 
   33000    286.07266    -5881.271    29.545257     9270.117    14573.392     13236.58 
   33100    288.97121   -5881.4952    29.844616    12230.292    18145.286    18612.708 
   33200    296.33343   -5881.3205    30.604977    12151.545    18850.401    17427.951 
   33300    287.48906   -5879.8495    29.691541    9481.7673    8599.7879    19887.681 
   33400    298.54272   -5880.6593     30.83315     9234.959    13316.717    14341.997 
   33500    291.24548   -5880.4501      30.0795    12042.172    19704.291    16601.033 
   33600    294.18582   -5880.3136    30.383175    10802.955    20602.095    11904.771 
   33700    300.82533    -5880.927    31.068896    12747.026    21271.374    16699.235 
   33800    292.02191   -5880.8627    30.159689    10586.069    19173.592     12638.69 
   33900    290.66734   -5879.1881     30.01979    10341.776    16246.618    14798.174 
   34000    291.36538   -5880.5368    30.091883    8726.1581    10372.291    16109.219 
   34100     306.2928   -5880.6553     31.63357    7398.1643    12649.667    9356.2241 
   34200    287.00549   -5880.8411    29.641598    6505.6938    8818.3809    10512.969 
   34300     301.7371   -5880.2222    31.163062    4476.1913    6823.4317    6942.5392 
   34400    293.79397   -5879.5255    30.342705    4428.9812    9229.6282    4336.8072 
   34500    296.73484   -5880.0783    30.646435    6715.4833     14243.29     6325.126 
   34600     299.5273   -5880.6969    30.934837    7588.1252    12010.206    10656.868 
   34700    296.89054   -5881.2263    30.662515    6171.1543    10426.239    8343.1435 
   34800    300.12143   -5880.9035    30.996198    7371.1483    10360.201     11432.26 
   34900    284.57938   -5881.6055    29.391033    6334.2017    10105.038    8797.8802 
   35000    297.23505   -5882.1377    30.698095    5738.0228     7495.757     9939.815 
   35100    297.70156   -5882.6805    30.746277    5826.3544    7628.5167    9818.9349 
   35200    301.89583      -5880.1    31.179456    6182.2829    6444.3796     12142.42 
   35300      304.776   -5882.0923    31.476917    6851.2331    4651.9372    15756.636 
   35400    297.35111   -5879.7125    30.710082    3868.9577    3758.9104    8130.0272 
   35500    310.18537    -5881.536     32.03559    5560.8473    9059.9815    7577.8862 
   35600    292.22204   -5880.2242    30.180358    4237.5195    7752.5426    5562.8831 
   35700    306.14958   -5879.7422    31.618779    6430.4608     12135.65    6944.4118 
   35800    307.52784   -5880.0052    31.761123     5738.301    12671.305    5015.5917 
   35900     314.9457   -5880.8301    32.527231     5258.432    15801.933   -205.44243 
   36000    308.12373   -5879.7859    31.822667    6425.7443    17742.385    1564.1598 
   36100    306.53234   -5881.1748     31.65831    9852.3384    20476.487    8948.4422 
   36200    296.76423    -5880.259     30.64947    9154.2991    15929.721    11136.497 
   36300    307.96442   -5881.5432    31.806213    9016.7758    15518.375    11714.986 
   36400     292.6849   -5881.2918    30.228161    10746.071    20757.836    11109.385 
   36500    296.44236    -5881.458    30.616228    11227.178    20308.097    13568.788 
   36600     293.3245    -5880.642    30.294219    10747.466    16422.925    15643.474 
   36700    307.57714   -5880.1198    31.766215    9041.7343    15897.555    11861.694 
   36800    299.42915   -5880.1251      30.9247    9980.8492    17788.968    12131.658 
   36900    290.95612   -5880.9607    30.049615    9213.5401    13450.783     14246.78 
   37000    301.82452   -5880.2842    31.172091    9025.2766    13710.431    13533.066 
   37100    319.24295   -5882.1378    32.971047    11559.213    14004.299    20209.586 
   37200    303.86563    -5880.393    31.382895    9572.2774    15533.096    13621.331 
   37300    311.91109   -5879.2811    32.213821    10547.476    19081.888    12671.971 
   37400    313.09284   -5880.3831     32.33587    9374.5999    9957.1826    17990.306 
   37500     313.4959   -5882.4998    32.377498    8556.4444    11878.593    13611.533 
   37600     299.9395   -5880.2677    30.977409    8556.8876    9245.6008    15910.179 
   37700    292.23558   -5879.7607    30.181756     8045.343    12649.872    11885.395 
   37800    288.88497   -5879.9717    29.835709    10833.102    14785.521    17824.299 
   37900    297.66342   -5879.4903    30.742338    10518.573    11475.156    20229.708 
   38000    296.50766    -5880.225    30.622972    12052.774    16809.945    19288.061 
   38100    294.44663   -5881.3086    30.410111    9613.9622    9688.8579    19121.122 
   38200    293.75236   -5880.8563    30.338408     9499.967    11720.899    17097.828 
   38300      315.421   -5881.0408     32.57632    10827.023    12079.013    20117.657 
   38400    306.98918   -5880.4332    31.705491    7986.3828     8908.853    15067.402 
   38500    304.06856   -5880.1818    31.403853    10497.661    12293.013     19339.24 
   38600    301.80984   -5879.6895    31.170575    12179.561    15173.154    21228.373 
   38700    298.54586   -5880.5591    30.833475    14283.712    21379.415     21392.88 
   38800    295.47258   -5880.0121     30.51607    12440.824    17477.518    19632.407 
   38900    291.96763   -5880.9356    30.154083    9814.5477    11209.733    18353.557 
   39000    295.97621   -5880.3279    30.568084    9493.7519    14232.673    14714.715 
   39100    301.61348   -5880.1721    31.150295    8915.5971    13612.893    13254.327 
   39200    307.77653   -5881.0843    31.786808    6788.9359    10409.848    10231.581 
   39300     290.0758    -5881.267    29.958696    8714.8075    11117.851    15286.128 
   39400    297.18337   -5879.4543    30.692759    7906.1105     10932.04    12902.456 
   39500    297.96653   -5881.0613    30.773643    6842.0421    9872.0497    10959.366 
   39600    318.64324   -5879.1815    32.909109    7444.3284    9304.0864    13246.551 
   39700    305.98353    -5879.774    31.601629    10254.716    13947.229    16645.978 
   39800    311.09386   -5879.4009    32.129417    9253.6499    11250.286    16462.471 
   39900    294.16517   -5882.8011    30.381042    7406.3949    5997.4969    16131.278 
   40000    287.66149   -5880.2741    29.709349    8585.9624    8065.5745    18074.007 
   40100    303.46371    -5881.171    31.341385    9591.6958    8771.2529    20042.436 
   40200    308.85921   -5881.6674    31.898625     9124.511    6647.8778    20440.067 
   40300    290.70646   -5880.0949    30.023831    5030.5892    3783.2941    11536.751 
   40400    289.42766   -5881.1012    29.891757    6315.2765    7588.3342    11510.643 
   40500    291.87579   -5880.3886    30.144598    9207.1606      11105.3    16540.613 
   40600    294.38285   -5880.6768    30.403524    9022.3659    13313.718    14034.735 
   40700    308.20913   -5880.5472    31.831487    8293.5034    14066.471    11114.542 
   40800    296.62889   -5878.6589    30.635493    6246.0719    2785.9985    16248.006 
   40900    303.76694   -5879.8912    31.372702    4564.2632   -2470.2245    16332.796 
   41000    311.73889   -5879.4101    32.196036    8280.0686    5403.1826      19191.1 
   41100    316.05859   -5877.5777     32.64217    10110.704    9861.0941     20340.11 
   41200    287.06848   -5879.1666    29.648104    8221.3928    10990.627    14124.046 
   41300    300.11462   -5880.5147    30.995495    5754.6293    6380.9794    11296.222 
   41400     300.9855   -5881.5999    31.085438    5890.8313     6148.966    11607.964 
   41500     295.9772   -5882.3586    30.568187    6264.1971    6224.3018    12367.988 
   41600    307.34638    -5881.398    31.742382     6002.621    1585.3261    16497.865 
   41700    285.57286   -5881.2166    29.493639    4250.5084   -3583.4772     16654.34 
   41800    288.69832   -5880.5797    29.816432    4602.9509   -2698.7739    16721.813 
   41900    296.45529   -5882.4003    30.617563    5207.0297    3504.7181    12118.503 
   42000    297.18814   -5880.2223    30.693251    4728.3256    6991.6261    7642.2736 
   42100    308.84055   -5880.2414    31.896699    6054.7199    9527.0062    8860.3481 
   42200    307.24363     -5878.53    31.731771    4234.7914    6680.0907    6936.2056 
   42300     313.5314   -5880.2558    32.381164    8177.5956    14715.993     9572.493 
   42400    294.84055   -5880.7155    30.450794    7182.5589    13439.876    8508.9076 
   42500    303.77149   -5881.3127    31.373172    8337.3098    14645.989    10069.833 
   42600     312.0375   -5882.5407    32.226876    10090.331    11493.043    18558.495 
   42700    298.09107   -5880.5116    30.786504    9875.2776    14310.512    15178.608 
   42800     298.6314   -5882.0881    30.842309    9131.8372    15347.946     12165.02 
   42900    301.27638   -5881.6413     31.11548     7399.857    11960.502    10415.224 
   43000    297.36421   -5879.7499    30.711435    5925.4366    11228.149    7077.4968 
   43100    300.22671   -5881.8535    31.007071    9591.6052     12742.24    15927.621 
   43200    311.04829   -5880.6992    32.124711     10334.03    13448.232    17680.617 
   43300    309.66029   -5880.6961    31.981361    10652.629    15756.759    15919.479 
   43400    312.89097   -5880.0865    32.315021    9434.1577    14947.168    13564.177 
   43500    304.62751    -5879.584     31.46158     10093.98    16057.834    14460.908 
   43600    300.84735   -5880.6187     31.07117    9441.9259    10576.304     17814.39 
   43700    300.99629   -5880.6015    31.086552    7914.4003    6753.2167    16997.058 
   43800    292.50871   -5880.8528    30.209965    7203.7804    2906.4149    18762.044 
   43900    297.58879   -5879.0889     30.73463      7441.33     5518.182     16930.96 
   44000    302.61297   -5881.3383    31.253521    6383.1627     4095.553     15153.32 
   44100    300.68154    -5880.365    31.054045    7510.9305     8730.656    14358.724 
   44200    300.65155   -5879.8687    31.050948    7997.5302    10991.961    13168.427 
   44300    296.88248   -5880.2649    30.661683    10560.358    12369.217     19565.45 
   44400    302.71597    -5881.329    31.264159    11103.234    12483.516    20829.021 
   44500    312.22511   -5880.4099    32.246253    10174.886    10927.362    19187.949 
   44600    304.69926   -5879.2306    31.468991    10582.437    13088.322    18959.612 
   44700    303.73566   -5878.8119    31.369471    8300.6307    2036.8589    22842.932 
   44800    306.24069    -5881.628    31.628188    8838.6086    3020.8046    23341.615 
   44900    299.20263    -5879.806    30.901306    8031.0677    8097.0708    16443.434 
   45000    302.53442   -5880.3614    31.245409    8899.2069    13261.607    13262.588 
   45100    310.50879   -5879.8419    32.068992    9361.9793    13462.439    14788.206 
   45200     296.0175   -5881.7881    30.572349    9922.3383    17300.746    12324.747 
   45300    302.23753   -5880.0017    31.214747    8403.2685    10361.971    14628.007 
   45400    305.53414   -5881.1744    31.555217    11467.738     14591.33     19613.74 
   45500    296.15904   -5881.2248    30.586967    10789.829    11780.936    20477.396 
   45600    292.69401   -5880.1671    30.229102    10486.574     16676.47    14986.128 
   45700    300.74576   -5880.6361    31.060678    12177.598     20832.09    15370.836 
   45800    307.89164   -5881.5674    31.798696    10195.897    14211.129    16225.058 
   45900    278.95199   -5879.2477    28.809842    10337.934    7390.4541    24111.701 
   46000    296.45028   -5880.7007    30.617046    9602.6692    13157.112    15811.329 
   46100    303.68692    -5881.856    31.364438     10063.25    10948.791    18966.371 
   46200    300.63036   -5879.9879     31.04876    11716.917    15327.152     19512.99 
   46300    301.78811   -5879.5817     31.16833    9652.0384    14920.047    14353.718 
   46400    308.98833   -5879.9143    31.911961    10174.324    14149.324    16241.194 
   46500     283.1262   -5879.0914    29.240951    10204.879    20584.924    10398.916 
   46600    293.93838   -5880.1004     30.35762    11264.932    19606.161    14527.849 
   46700    287.67531   -5879.2082    29.710777    10054.694    15432.724     14887.01 
   46800     308.0585   -5880.5075     31.81593    8747.0171    14498.147    11551.418 
   46900    293.17018   -5879.4925    30.278281    7120.5289    12278.763    9541.1861 
   47000    293.76349   -5880.5674    30.339557    7384.7861    12617.435    9229.9171 
   47100     293.2179    -5879.848     30.28321    7991.7483    14944.285    9326.8923 
   47200    291.80022   -5878.1988    30.136793     7197.741     14085.27    7936.8864 
   47300    287.65483   -5880.4472    29.708662    7424.2679    12949.005    9783.0807 
   47400    308.63731   -5881.7814    31.875708     10605.94    16616.847    14930.253 
   47500    302.13886   -5881.0086    31.204556    9857.9667    13598.336    15990.171 
   47600    302.87933   -5882.2004     31.28103    10314.963    13656.281    16899.859 
   47700    285.82796   -5881.4261    29.519984    7480.7352    12390.986      10242.8 
   47800    281.58551     -5882.46     29.08183    7753.5733    8665.5294    14370.005 
   47900    302.71291   -5882.6833    31.263843    8702.0559    16181.872    9423.7946 
   48000    287.17413   -5879.5616    29.659016    10147.925    16802.327    14097.143 
   48100    297.44766   -5881.4269    30.720054    10858.182    21291.545     11070.23 
   48200    297.84949   -5881.9127    30.761554    10787.455    24229.702    7946.3509 
   48300    307.21685   -5881.4846    31.729004    9093.4668    18618.846    8623.3781 
   48400     279.2855   -5881.0389    28.844287    8592.9354    20381.127    6040.6476 
   48500    281.21095   -5882.1483    29.043145     11101.46    20416.422     13218.36 
   48600    296.24186    -5879.505     30.59552    9352.5367    21168.873    7203.4998 
   48700     304.7068    -5880.063     31.46977    8429.0568    17426.191    7907.1291 
   48800    298.96421   -5879.4481    30.876681    7646.0349    12225.003    10746.878 
   48900    304.16933   -5878.2426     31.41426    7469.2267    14543.403    7869.8188 
   49000    328.97126   -5879.8148    33.975775    6118.7129    11234.122    7165.1713 
   49100     309.1122   -5881.4202    31.924755    5166.8828    10542.622    4680.4258 
   49200    293.19236   -5880.0444    30.280571    4297.0759    6919.6815    6637.6024 
   49300    297.03954   -5881.2083    30.677903    6531.4938    9741.7053      9789.88 
   49400    303.85075   -5881.1137    31.381358    7202.6353    9376.5446    11935.319 
   49500    297.54372   -5879.4826    30.729975    6002.1173    6430.8696    11649.187 
   49600    297.26344   -5881.0305    30.701028    7420.2151    6963.2617    15481.592 
   49700    284.17868   -5880.1324    29.349649    6948.2697    5530.6148    15713.744 
   49800    300.62623   -5881.4906    31.048333    8396.9047     7270.106    17974.442 
   49900    297.70989   -5880.9202    30.747137    8585.3391    8336.3751    17568.605 
   50000    311.73285   -5883.1049    32.195412     9057.742     7073.318    19475.561 
   50100    288.74467   -5880.9813    29.821219    9668.3294    9708.1873    19682.711 
   50200     289.9463    -5880.762    29.945322    10436.458    12564.954    19331.191 
   50300     290.7906   -5881.3581    30.032521     9911.846    14685.286    15353.551 
   50400    297.13062    -5880.954    30.687311    8981.5696    13323.111    13877.995 
   50500    319.46092   -5881.1337    32.993558    10038.567    13869.747    15558.772 
   50600    289.72083   -5881.2736    29.922036    9960.1178    10413.434    19575.796 
   50700    289.34746   -5881.7768    29.883474    10601.903    9026.9448    22390.975 
   50800    296.22112   -5881.2137    30.593379    9122.8232    10528.148    16126.989 
   50900    297.11352   -5882.0751    30.685544    10168.442    11991.736    18810.949 
   51000    305.89342    -5880.307    31.592323    10311.991     15050.75    15956.809 
   51100    296.35267   -5881.6805    30.606965    9162.3732    15123.248    12183.921 
   51200    310.09753   -5879.3444    32.026519    9971.8607    14633.519    15479.373 
   51300     301.6194   -5879.0283    31.150906    9597.2854     14511.53    14631.023 
   51400    307.84544   -5879.4989    31.793925    9898.6497    15517.156    14076.694 
   51500     310.4644   -5879.2076    32.064408    10422.387    15109.988     15946.68 
   51600    313.49596   -5881.3123    32.377504    9231.3583    12342.622    15463.329 
   51700    308.55648   -5880.9312     31.86736    10952.447    16586.356    15941.476 
   51800    308.60946   -5880.0208    31.872832    9165.4977     13286.46    14357.967 
   51900    289.83172   -5878.8184    29.933489    9820.7121    15769.274    13823.037 
   52000    303.09268   -5879.6835    31.303065    8918.3884    13297.537    13517.339 
   52100    288.51731   -5880.8431    29.797737    5642.8031    16546.661     931.9021 
   52200    306.47599   -5881.8064     31.65249    5944.3774    11816.099    5948.4979 
   52300    304.80341   -5881.2389    31.479747    8713.7165    20763.648    5432.3702 
   52400    299.14917   -5880.3029    30.895784    10793.109    17843.802    14126.399 
   52500    297.35801   -5879.6941    30.710795    9849.9755    17428.257    12146.188 
   52600    294.17436   -5880.5027    30.381991    9466.3008    19154.881    8706.5826 
   52700    297.22027   -5881.2267     30.69657    5894.8639    14506.132    3357.3835 
   52800    304.45117    -5880.277    31.443369    7615.8375    16422.796    6367.2108 
   52900    296.09437   -5880.4886    30.580288    7179.4799    12342.816    9524.8827 
   53000    293.03237   -5881.7868    30.264048    8407.9436    12643.915    11985.638 
   53100    302.08676    -5880.903    31.199175    7151.4401    10417.707    10515.783 
   53200    305.37379   -5880.2696    31.538655    8270.5554    12054.463     13006.11 
   53300    301.84296   -5881.4409    31.173995    9322.2748    13917.313    13911.253 
   53400    280.54146    -5881.756    28.974001    9401.3238    11970.759      15955.3 
   53500    291.65285   -5881.6174    30.121573    8958.4094    8836.1233    18113.052 
   53600    300.11071    -5881.942     30.99509    7063.4073    8964.6088    12000.524 
   53700    291.57191   -5881.1356    30.113213    8076.5444    6804.8665    17576.212 
   53800    291.54447   -5879.5702    30.110379    7036.2307    9167.6619    12434.382 
   53900    298.98688   -5880.3397    30.879023     5439.091    6245.6128    10296.547 
   54000     297.3917   -5882.0886    30.714275    8262.0943    8511.7983    16289.183 
   54100    297.17846   -5879.9151    30.692251    10239.682    10886.349    19503.747 
   54200    304.72093   -5879.0823    31.471229    7037.8963    11315.693    10643.162 
   54300    297.15129   -5880.4598    30.689446    9703.2532    12696.603    16426.115 
   54400    298.28467   -5878.8639      30.8065    9576.7559    10808.889    18093.119 
   54500    302.80007   -5880.4837    31.272845    10550.272    18749.848    12839.209 
   54600    302.24552   -5880.4128    31.215571    9311.7193    19152.748    9307.0943 
   54700    304.23432   -5879.1361    31.420972    7637.5344    19045.738    3756.4645 
   54800    309.16341   -5880.1535    31.930043    10375.592    19867.032    11566.493 
   54900    300.40526   -5881.0708    31.025512    11782.104    19368.677    15774.857 
   55000    300.43627   -5880.4964    31.028714    7099.0211    12701.372    9221.4167 
   55100    300.99236   -5881.1308    31.086147    8842.0322    14164.297    12290.793 
   55200    295.17222   -5881.0278    30.485049    7902.4792    13638.508    10080.689 
   55300    290.44949   -5881.4148    29.997291     10032.49    15150.931    15098.309 
   55400    292.84712   -5880.9682    30.244915    8765.0765     14333.93    11661.205 
   55500    299.49747   -5882.7558    30.931757    10221.534    14139.251    16261.397 
   55600    307.14744   -5881.2549    31.721836    9087.2417    10902.122    16373.504 
   55700    302.04322   -5878.9033    31.194678    8924.1015    12500.333    14550.096 
   55800    316.78266    -5879.804    32.716951    8805.8068    11812.814    14631.697 
   55900    305.32103   -5880.3374    31.533206    7841.9046    13513.426    9907.3047 
   56000    302.51204   -5879.6446    31.243098    8708.0571    13058.966    12832.625 
   56100    302.53425   -5882.2942    31.245391    10032.924    17987.218    11710.859 
   56200    313.61958   -5879.0738    32.390272    9495.9028    15126.402    13157.145 
   56300    295.92466   -5879.6961     30.56276    9953.4693     12675.58    17466.359 
   56400    304.66211   -5882.6395    31.465154    6291.9979    11811.722    7524.6633 
   56500    302.99355   -5879.6383    31.292827    6136.7858    12991.377    5641.9108 
   56600    297.05427   -5879.1228    30.679425    7415.5751    10965.863    11638.308 
   56700    287.46266   -5880.0055    29.688815    8765.5684    16995.286    9513.4667 
   56800    298.18579   -5880.3605    30.796287    8512.6576    20008.907    5777.5502 
   56900    305.60544   -5882.9137     31.56258    7581.8454    19367.868    3191.2958 
   57000    297.73726   -5879.6354    30.749964    7351.1139    15930.079    6513.4304 
   57100    296.20803   -5880.7636    30.592027    7458.4016    17930.746    4427.4303 
   57200     312.2678   -5880.8615    32.250661    4277.9499     16216.64   -3402.0991 
   57300    289.01005   -5881.7497    29.848627    6263.3613     22192.17   -3442.3708 
   57400    302.34956   -5880.1011    31.226317    5020.7157    17949.627   -2891.5186 
   57500    305.18695   -5879.6039    31.519359    8005.2454     14760.08    8469.4766 
   57600    304.76918   -5879.6755    31.476213    8484.0885    14086.432    11353.646 
   57700      301.667   -5880.0441    31.155823    7149.2347    13141.697    8159.8262 
   57800    284.41945   -5882.1124    29.374516    6278.7505    8174.3639    10530.361 
   57900    285.45549   -5881.9878    29.481516     8077.421    7533.7589    16614.592 
   58000    295.00925   -5879.8305    30.468218    8082.7531    11704.603    13182.286 
   58100    302.70351    -5879.316    31.262872    9670.1865    12043.052    16894.649 
   58200    293.16209   -5881.6754    30.277445    9409.6668    7266.1853    20971.309 
   58300    303.45947   -5879.7978    31.340947    8653.8377    7596.1431    18618.294 
   58400    298.69825   -5881.7641    30.849213      11092.3     16338.79    16850.623 
   58500    296.30358    -5881.359    30.601895    10097.726    17688.044    12297.029 
   58600     287.1292   -5881.3569    29.654376     10728.42    15193.463    17181.974 
   58700    290.54911   -5880.7984     30.00758    10133.822    15201.767     15451.24 
   58800    299.42038   -5879.2674    30.923794    8613.7958    12794.706    13283.754 
   58900    291.86427   -5881.8914    30.143408    7627.3049    9791.0305     12761.14 
   59000    293.67478   -5879.3195    30.330395    4633.6484    6974.6443    7324.5204 
   59100    308.37155   -5880.5275    31.848261    7064.2071    11502.706    9886.4925 
   59200    312.04453   -5878.6278    32.227602    8796.5347    14081.815    12377.981 
   59300    311.17802    -5879.708     32.13811    9174.0647    7612.3542    19870.941 
   59400    299.36676   -5879.1495    30.918256     7744.737    5947.0256    17385.821 
   59500    284.41529   -5881.3441    29.374086    6698.6645     7186.059    13228.607 
   59600    290.18237   -5880.9059    29.969703    10249.456    13293.591    17488.794 
   59700    294.98676   -5880.9782    30.465895    10079.329    12000.701    18172.948 
   59800    291.26779   -5879.4936    30.081804    8923.5146    7044.7873    19875.112 
   59900    300.47939   -5881.0546    31.033167     8145.572    10435.023    13930.644 
   60000    288.15289   -5880.4215    29.760101    9122.9163    10942.018    16516.959 
   60100    296.82877   -5881.7238    30.656136    7036.3178    9555.5103    11733.183 
   60200    287.52841   -5880.8929    29.695606    8102.0597    10552.973    13467.243 
   60300    289.85278   -5881.1521    29.935663    10628.955    10694.531    21139.104 
   60400     295.3445   -5881.1147    30.502843    9672.0366    14054.121    14789.454 
   60500    301.20109   -5881.2937    31.107704     6879.449    16064.942    5325.8657 
   60600    294.22784   -5878.8808    30.387515    5748.4285    8387.7085    9338.0218 
   60700    302.99134   -5881.1936    31.292599    7955.0144    10878.751    12842.413 
   60800     295.0865   -5879.7903    30.476196    8937.1136    12318.979     14367.07 
   60900    324.66736   -5880.9132    33.531273    6738.3659    5053.0131    15120.452 
   61000    293.10863   -5882.0421    30.271924     6674.043    11255.087    8540.5196 
   61100    310.41379   -5879.9773    32.059181    4500.3258    6326.6617    7954.3391 
   61200    303.97196   -5880.8887    31.393876    7733.3868    10522.106     12401.56 
   61300    298.26073   -5880.6167    30.804027    7716.3327    13396.924    9775.3664 
   61400    304.89049   -5880.8644    31.488741    7734.0943    14234.733    8889.7572 
   61500     296.7782   -5881.6011    30.650913    8762.6761    17103.615    9365.0741 
   61600    295.35945   -5880.5631    30.504386    11467.661    14162.343    19982.601 
   61700    313.68745   -5881.1821    32.397281    11997.736    17673.674     17879.12 
   61800    296.73357   -5880.9684    30.646303    10405.453    18193.287    12971.313 
   61900    292.70302   -5879.7359    30.230033    8695.6372    16791.279    9654.2286 
   62000    294.70729   -5879.0641    30.437032    9283.1526    17870.871    10243.535 
   62100    303.72914   -5880.1708    31.368798    10822.655    21017.597    11287.433 
   62200    310.82464   -5881.3312    32.101613      9392.13    14170.899      14035.1 
   62300    305.84534   -5879.1386    31.587357    7180.2872     9730.239    12109.384 
   62400    309.73307   -5880.3785    31.988877    8431.4068    12214.307    12857.929 
   62500    313.23363   -5880.1623    32.350411    8097.6183    16124.872    7900.6696 
   62600    317.06043    -5881.003    32.745638     6574.288    11638.436    8188.9866 
   62700    296.63618   -5880.0135    30.636246    6345.3841     6672.525     12740.63 
   62800    291.04928   -5880.8277    30.059237    6833.8632    8476.1788    12222.938 
   62900    296.13131   -5881.0806    30.584103    6966.9203    14306.696    6472.3523 
   63000    301.74916   -5882.1707    31.164308    4598.8256    13154.737    660.37204 
   63100    306.67444   -5882.3038    31.672986    3123.5371    7675.8791    1978.7648 
   63200    304.92372   -5880.6357    31.492173    7123.9627    14370.625    6469.5295 
   63300    305.98291   -5881.0705    31.601564    6888.3363    16076.628    4597.2395 
   63400    297.89261   -5880.6929    30.766008    7152.4163    15691.378    6223.9576 
   63500    285.01592   -5881.1353    29.436118    6458.2481    9511.9397    10610.321 
   63600    281.48154   -5880.4607    29.071092    10887.082    18433.439     14285.88 
   63700     282.8388   -5881.8533    29.211268    10674.634    16614.415    15319.702 
   63800    302.48307   -5881.7238    31.240106    9334.2561    19300.071    8694.1963 
   63900    307.34593   -5880.8842    31.742336    8690.5551    16328.214    9552.5698 
   64000    301.07016   -5879.6667    31.094181    7326.6289    11538.206    10685.056 
   64100    308.19319   -5880.3593     31.82984     8338.896     15094.93    9983.0746 
   64200    298.29349   -5881.1207     30.80741    7090.4786    17702.736    3724.3637 
   64300    313.55754   -5879.0698    32.383864    8170.9656    21585.887    2667.3173 
   64400    315.26729   -5881.5746    32.560445    9432.5044    21999.686    5970.5593 
   64500    313.61613   -5879.5123    32.389915      9157.41    22807.122    4866.6733 
   64600    291.76251   -5880.7037    30.132898    7709.4801    13897.377    9641.3797 
   64700      306.516   -5880.3863    31.656622    8845.7528    21405.331    4935.9552 
   64800    289.32371   -5880.3407    29.881022    9500.0521    19205.988    9604.0953 
   64900    296.12765   -5879.4523    30.583725    7684.6574    14283.716    8968.6715 
   65000    302.99449   -5880.3228    31.292924    6803.7251    10632.976    10049.389 
   65100    314.62023   -5881.9559    32.493618    6460.7825    11326.614    7720.1432 
   65200    312.14501   -5880.1131    32.237979    7827.7661    16720.197    6263.1315 
   65300    303.22935    -5880.675     31.31718    6766.3005    12407.905    8242.8348 
   65400    300.80366   -5881.0825    31.066658    7575.2934    14453.847    8387.4535 
   65500    287.10156   -5879.5828     29.65152    6290.7766    10397.713    8812.9496 
   65600    288.15512    -5881.473    29.760331    7749.3875    12273.069    11035.367 
   65700     291.0672   -5880.7391    30.061088    9215.5417    16732.186    10611.887 
   65800    300.75375   -5880.9953    31.061504    9705.2844    13580.706     15527.46 
   65900    290.17079   -5879.9388    29.968508     9641.518    14907.212    14167.248 
   66000    299.17896      -5880.8     30.89886    9541.8524    17616.243    11293.373 
   66100    295.39633   -5881.0723    30.508195    9033.7232    14722.651    12297.441 
   66200    295.23183   -5881.0348    30.491206    7953.5292    9835.8212    13962.544 
   66300    315.68318    -5880.853    32.603398    9694.4678    11533.912     17131.95 
   66400    308.59325   -5880.8746    31.871158    9064.0156    11379.285    15296.542 
   66500     303.5765   -5881.7195    31.353034     6761.185    9358.5739    10799.944 
   66600     308.6192   -5881.3118    31.873837     6176.326    5764.4942    12500.667 
   66700    302.78187   -5880.7573    31.270965    5783.6917      8971.62    8787.2971 
   66800    298.52663   -5882.7977    30.831489    6104.0487    12186.183     5979.241 
   66900    314.44994   -5881.0899     32.47603    7079.2965    14172.549    7221.9926 
   67000     303.3868   -5880.7235    31.333441    7641.3149      13484.2    9428.4607 
   67100    305.93861   -5880.4388    31.596989    8273.7012    8606.8479    15936.404 
   67200    297.52272   -5878.5748    30.727806    7013.7923    8998.0233    11743.922 
   67300    297.19448   -5880.3544    30.693906    5807.8515    4908.2356    13002.984 
   67400    308.28499   -5880.8471    31.839321    5385.2135    2947.1774    13395.387 
   67500    304.74708   -5880.9283    31.473929    7918.5672    8977.1035    15045.216 
   67600     303.0031   -5880.7942    31.293814    9545.1134     10584.57    18364.071 
   67700    277.36642   -5880.5345    28.646086    10941.785    14321.542    18597.711 
   67800    291.80644   -5880.4474    30.137436     7351.826    5608.1446    16957.849 
   67900    309.86919   -5882.1071    32.002935    7898.3614    12127.989    11362.459 
   68000    301.35902   -5880.2286    31.124015    9364.8993    13295.398    14503.249 
   68100    292.85334   -5881.0626    30.245558    7668.4056    7729.4392    15159.228 
   68200    288.37984   -5879.8669    29.783539    5284.0299    652.76663    15433.913 
   68300    287.93561   -5881.1902     29.73766    4158.1099    2823.5434    9605.9701 
   68400    288.01599   -5879.1406    29.745962    3773.3565   -2535.6133    14268.457 
   68500    295.10137   -5879.4382    30.477732     5290.299    3193.6693    13181.845 
   68600    307.55035   -5881.0866    31.763448    8306.9492    8680.5614    15881.742 
   68700    321.77979   -5881.7629    33.233049    5845.3938    5072.2785    12314.681 
   68800    301.92171   -5881.1077    31.182129    7710.7936    5987.5849    17128.934 
   68900    298.14384   -5880.8396    30.791954    7997.4075    7137.1488    17150.926 
   69000    290.22745   -5879.1172    29.974359    8136.6331    4514.2839    19968.494 
   69100    291.47796   -5881.4041     30.10351    9191.4955    8866.8887    18837.015 
   69200    288.60225   -5880.6593     29.80651    8984.8846    6783.0451    20519.521 
   69300     287.0307   -5878.9345    29.644203    8874.6868    12454.468     14234.01 
   69400    318.17923    -5882.491    32.861186    9019.3919    9138.0174    17749.983 
   69500    291.72872   -5879.8021    30.129408    6705.4667    4710.0801    15813.572 
   69600    296.44811   -5879.0006    30.616822    5291.3524   -3506.5615    19883.163 
   69700     299.1187   -5880.0675    30.892637    5444.9023   -2890.6381    19364.137 
   69800    305.14284   -5882.7152    31.514803     6938.924    3400.8531    17325.812 
   69900    305.81346   -5880.7982    31.584064     10330.39    10567.662    20156.269 
   70000    294.98146     -5879.61    30.465347    9661.8279    9098.3423    20072.352 
   70100    305.80968   -5881.0337    31.583674    9521.1798    12040.031    16207.106 
   70200    297.20885    -5881.617    30.695389    8774.0259    11677.854     14508.92 
   70300    304.25917   -5880.7283    31.423539    11196.954    13757.649    19423.829 
   70400    311.17425   -5881.3191    32.137721    9463.0999    9623.2928    18523.792 
   70500    297.50629   -5881.0058    30.726109    12321.106    14059.044    22532.775 
   70600    308.12468   -5880.3374    31.822764    11806.084     20453.62    14485.404 
   70700    304.47192   -5882.3093    31.445512    9771.6487    13772.582    15547.804 
   70800    294.89593   -5881.0274    30.456514    8197.8046    14105.432    10818.919 
   70900    289.43319   -5881.1396    29.892329     8544.701    11253.905    14321.897 
   71000     284.7965   -5881.3908    29.413456    7792.3801    11580.588    11847.982 
   71100    291.06792    -5881.528    30.061161    10053.722    12548.032    17317.791 
   71200     293.8469   -5880.6586    30.348171    8682.3365    11402.511    14547.498 
   71300    287.81277   -5879.0542    29.724974    7406.4584    8799.4685    13741.813 
   71400    294.06153     -5880.14    30.370338    6528.4953    6351.6796    13782.448 
   71500    290.37161    -5880.009    29.989247     7609.683    9819.8632    13176.618 
   71600    308.02317   -5879.3069    31.812281    7097.5281    13322.617    8065.7855 
   71700    301.46637   -5879.6266    31.135102    8254.0402    17117.598    7593.2825 
   71800    299.99433   -5879.7478    30.983071     9113.545    15911.914    11738.451 
   71900    310.18364   -5880.0299    32.035411    8616.0063    15595.721    10375.016 
   72000    317.61312   -5880.8053     32.80272    11133.379    21042.212    12213.769 
   72100    302.25274    -5879.999    31.216317    10086.716    19079.465    11286.036 
   72200    305.19819   -5880.5212     31.52052     7883.778    11261.938    12358.691 
   72300    304.06792   -5880.2925    31.403787    7005.0696    13333.063    7739.7249 
   72400    303.96572   -5880.6529    31.393232     6407.648    9726.3991    9551.6577 
   72500    301.94599   -5880.1147    31.184637    8216.8023    15725.193    9520.0507 
   72600    294.95207   -5880.3882    30.462312    9535.2355    19360.042    9428.3133 
   72700    301.40388   -5880.2532    31.128648    10872.859    16289.893    16721.384 
   72800    312.26334   -5880.0341      32.2502    10392.314    15922.701    15073.262 
   72900    304.88698   -5880.5983    31.488379    7975.4696    12876.987    11191.886 
   73000    307.53352   -5881.2251     31.76171    9245.7213    16239.961    11268.406 
   73100      302.146   -5880.7435    31.205293    7673.7925     13544.29     9308.095 
   73200    298.35104   -5878.9514    30.813354    5905.4575    10720.246    6811.0759 
   73300    299.41053   -5879.9089    30.922777    6128.9989    9636.2259    8793.0834 
   73400    292.34911   -5881.8674    30.193481    7414.0026    12727.102    9511.7552 
   73500    309.30544   -5879.5409    31.944712    7144.5607    12435.913    9075.8052 
   73600    325.80996   -5879.8966     33.64928    6766.5256    11950.435    8592.4811 
   73700    305.16794   -5881.2201    31.517396    7203.4183    16254.319    5120.9559 
   73800    309.36218   -5879.8796    31.950572    6362.3745    18854.036    461.89502 
   73900    308.62314   -5879.3854    31.874245    7845.6119    14043.522    9502.9876 
   74000    303.26257   -5880.9134    31.320611    8510.0374    15252.249    10590.262 
   74100      285.467   -5880.2161    29.482705    9447.8761    17595.818    10383.704 
   74200     306.3556   -5882.2563    31.640056    7999.6699    16802.219    7172.3417 
   74300    294.28898   -5881.2679    30.393829    8838.3566     15378.73    11277.837 
   74400    295.08958   -5881.0191    30.476514    10210.419    14989.435     15674.25 
   74500    299.97936   -5878.9785    30.981525    11113.834    16317.438    16996.511 
   74600    286.96705   -5881.4149    29.637629     10824.69    19010.417    13404.937 
   74700    300.56061   -5880.6289    31.041556     10486.58    20123.426    11115.252 
   74800     292.6616   -5879.0372    30.225755    8940.8571     16724.92    10396.346 
   74900    300.30114   -5877.6101    31.014758    11340.737    19525.826    14369.151 
   75000     291.0861   -5879.3718    30.063039    11370.342    20518.024    13412.343 
   75100    291.91138   -5878.9307    30.148274    10481.255    21833.106    9849.4944 
   75200    288.27555   -5879.9069    29.772769    9122.4262    20227.344    7085.1876 
   75300    311.96307   -5880.3303    32.219189    8005.5681    17985.349    5851.5559 
   75400     294.8346   -5879.0272     30.45018    7426.1229    20737.983    2185.6655 
   75500    289.60269   -5880.4663    29.909834    8301.8013    22176.993    2997.7565 
   75600    293.85356   -5881.2891     30.34886    8535.0734    20619.254    5318.8775 
   75700     300.6345   -5880.3637    31.049187    7481.4741    22930.988   -293.81798 
   75800    309.88745   -5881.4406    32.004821    6268.1448    19349.867   -351.83276 
   75900    289.07968   -5879.8395    29.855819    6394.0742    20510.956   -892.24202 
   76000    304.06381   -5880.6584    31.403362    5306.5031    19398.366   -3506.9414 
   76100    320.71387   -5879.9422    33.122962    7258.9625    16903.457    4422.8447 
   76200    302.14511   -5879.6814    31.205201     6693.138     14929.48    5125.0017 
   76300    301.71417   -5880.3209    31.160694    7050.2646    12437.221    8961.9823 
   76400    303.35825   -5881.0679    31.330493    8341.5801    13812.977    11060.678 
   76500    293.45121   -5878.2937    30.307305    8085.8782    13831.326    10165.683 
   76600    303.98231   -5880.5142    31.394945    8321.6077    15064.483    9419.5192 
   76700    299.81655   -5881.7702    30.964711    10378.937    17906.101    13223.057 
   76800    315.67048   -5881.4635    32.602086    9712.6693    16845.985    12054.567 
   76900    317.20045   -5881.8214      32.7601    9224.0126    19186.168    8077.0451 
   77000    299.66058    -5880.355    30.948601    8722.9991    19981.834    6288.0085 
   77100    290.32915   -5880.6786    29.984862    4613.2701    14288.457   -267.37797 
   77200    300.32747   -5880.1813    31.017477    4475.3192    14759.559    -1248.249 
   77300    297.06945   -5878.7237    30.680992    4701.9205    13382.995    953.45691 
   77400    290.22635   -5878.4169    29.974246    3509.1856     4882.478    6157.5881 
   77500    313.67549   -5882.9277    32.396045    6394.1595    10036.475    8963.1797 
   77600    305.80438   -5881.0323    31.583127    5131.4346    10924.863    4777.8198 
   77700    316.85257   -5880.4636    32.724171    6700.1842    13826.909    6219.3094 
   77800    301.52768   -5880.6966    31.141434    7329.6623    14659.417     7539.887 
   77900    287.01211   -5881.3025    29.642282    7154.4178    14672.492    6848.8273 
   78000    304.23467    -5880.196    31.421009    6754.7131    16941.486    3583.4539 
   78100    304.84084   -5881.5631    31.483613    5576.5405    10830.889    5869.0773 
   78200    304.36368   -5881.1084    31.434333    7083.7673    15928.449    5419.3199 
   78300    305.01459   -5880.8351    31.501557    8654.7112    15126.963    10923.161 
   78400    287.19599    -5879.117    29.661273    7880.2138    14625.171    9230.4146 
   78500    302.33014    -5878.908    31.224311    8434.0645     13764.28    11719.435 
   78600    306.09136   -5882.1362    31.612765    7932.8018    12692.161      11032.1 
   78700    289.89583   -5881.5541     29.94011    8634.9579    14143.975    11605.779 
   78800    297.24749   -5882.3674     30.69938    9762.7488    14177.285    15060.548 
   78900    290.55943   -5880.1434    30.008646    8709.5152    12501.114    13954.438 
   79000    302.43093   -5879.3835     31.23472    7759.9114    11623.944    11844.046 
   79100    303.76949   -5879.6071    31.372966    7658.8523    10091.347    12844.594 
   79200     299.8505   -5878.6883    30.968217    5816.6438    3180.1844    15174.591 
   79300    319.41628   -5879.8815    32.988948     8092.549    9112.7246    14939.239 
   79400    302.69983   -5880.9041    31.262492    7787.6103    11207.245    12353.623 
   79500    285.84117   -5881.5626    29.521349    6677.7831    6831.8404     13170.81 
   79600    281.41269    -5878.718     29.06398    5240.6627     5990.737    10317.365 
   79700     304.8069     -5881.29    31.480107    6802.9712    9331.2321    10923.074 
   79800    287.75612   -5882.7557    29.719123    7765.0353    13756.869    9425.1916 
   79900    304.56244    -5881.315    31.454861    6922.9876    10337.671    10627.925 
   80000    304.81143   -5880.5241    31.480576    8834.9861    15727.517    10898.392 
   80100    306.84966   -5880.4663    31.691082    11472.289    19766.718    14328.495 
   80200    311.03702   -5880.6605    32.123548    12127.206    21796.526     14461.01 
   80300    296.77544    -5879.606    30.650628    9947.2927    18269.671    11541.352 
   80400    297.70197   -5881.4512    30.746319     11885.35    18977.894    16463.191 
   80500    297.61267   -5880.9321    30.737096     8848.376    10376.695    16632.034 
   80600    300.26316    -5880.627    31.010836      11823.5    15042.069    19952.339 
   80700    295.64998   -5878.9268    30.534392    10993.335    15317.632      17341.9 
   80800    307.21447   -5880.3363    31.728759    10404.095    18654.991    12306.615 
   80900    297.64604   -5880.6172    30.740542     10264.36    17196.715    13455.974 
   81000    302.51605   -5879.3139    31.243511    10221.639    13704.664    16861.412 
   81100    309.35772   -5879.5866    31.950112    11574.071    14535.651    19915.252 
   81200    292.51972   -5880.5335    30.211102    8041.3174     10279.76    14268.454 
   81300    300.57449   -5878.2919    31.042989    7741.6233    13297.104    10177.844 
   81400    300.21379   -5881.1634    31.005736    8221.2359    13339.503    11262.743 
   81500    304.50288   -5880.1237    31.448709    8823.1255    15964.174    10154.326 
   81600    300.49712   -5880.0523    31.034998    9382.8688    16712.168    11380.271 
   81700    296.22423    -5877.925      30.5937     11441.46    22053.164    12446.713 
   81800    299.57692   -5880.0395    30.939961     10306.42    19955.844    11483.585 
   81900    289.55292   -5880.5773    29.904694    10875.014    13062.042    19774.582 
   82000    291.11994   -5880.0419    30.066534    11069.805    17582.641    15884.717 
   82100    292.80621   -5879.5486    30.240691    8166.2651    16796.333    7973.5775 
   82200    293.01514   -5880.1016    30.262268    10370.143    15432.376    16011.649 
   82300    293.82422   -5880.2971     30.34583    12833.906    21857.193    16499.559 
   82400    291.33004   -5880.2466    30.088233    11167.771    19452.012    14700.111 
   82500    317.06268   -5881.0604    32.745871    9557.5354    13957.195    14077.171 
   82600    310.13022   -5879.8498    32.029894    10973.629    16077.906     16626.16 
   82700    297.78856   -5879.8002    30.755262    10536.864     15961.13    15724.814 
   82800    291.91304   -5878.4522    30.148445    9881.1687     16665.54      12777.7 
   82900    320.69246   -5880.6702     33.12075     9825.123     15883.64    13523.044 
   83000    314.14915   -5878.4713    32.444965    10997.629    16288.286    16474.276 
   83100    332.40496   -5880.0263    34.330404    14131.011    19445.394    22194.907 
   83200    314.57633   -5878.2279    32.489083        11679     12736.91    22009.524 
   83300    306.25828   -5877.8865    31.630005    10610.066    11145.107    21521.047 
   83400    308.80256   -5879.0817    31.892776    10639.017    16806.811    15170.557 
   83500    311.24095    -5880.944    32.144609    10353.564     17598.32    13290.611 
   83600    299.41258   -5879.0508    30.922988    6891.3829    10177.259    11043.435 
   83700    317.07334   -5881.2063    32.746971    6033.8521    9013.4662    9230.1475 
   83800    305.70254   -5881.7559    31.572608    4469.4633    6383.7707    7129.9974 
   83900    300.45199   -5881.0241    31.030338    6855.7289    7540.2173    12855.555 
   84000    278.27548   -5879.7386    28.739974    7574.2053    16905.127    6303.7049 
   84100    286.04248   -5880.3852     29.54214    7139.8369    18028.627    3790.7002 
   84200    299.58277   -5879.5656    30.940565    6791.2306    13465.023    7080.6232 
   84300    303.73958   -5881.2393    31.369877    6958.8406    14960.157    5960.8894 
   84400    307.83685   -5879.9591    31.793038    9912.0632    18588.052    10815.834 
   84500    303.99004   -5881.5062    31.395743    10530.171    17867.905    13335.742 
   84600    296.01137   -5880.8767    30.571715    9181.6577    13675.724    13967.067 
   84700    290.66862    -5881.388    30.019923    6856.6878    8938.4883    11976.911 
   84800    308.12114    -5881.035    31.822398     10037.02    10689.818    19048.324 
   84900    285.97178   -5878.8509    29.534838    7783.6974    8846.7736    14961.598 
   85000    299.85303   -5881.3134    30.968478    8810.0712    10179.092    16812.092 
   85100    305.43537   -5879.8638    31.545016    11660.581    10709.362     24184.37 
   85200    300.76637   -5881.0047    31.062806    8659.6314    3789.5171    22313.095 
   85300    296.61589   -5879.2704     30.63415    9992.8999    10442.295    19823.136 
[...]
 1740600    303.56814   -5880.2518     31.35217    11226.234    10472.014    23040.277 
 1740700    303.65774   -5880.9457    31.361424    6863.5011    464.99935    20442.089 
 1740800    284.01057   -5881.3402    29.332287     3992.294    217.71022    12026.282 
 1740900    301.05975   -5880.4068    31.093106    6239.6895    8259.5596    10731.258 
 1741000    307.80379   -5881.7542    31.789624    8190.3729     10515.27    13746.263 
 1741100    299.56414   -5880.0482    30.938642      9179.91    9389.0049    17837.057 
 1741200      311.534   -5880.8998    32.174875    8361.8387    8494.1211    16322.015 
 1741300    291.68954   -5880.5434    30.125362    9315.8312    8997.8147     18907.58 
 1741400    298.35517   -5881.7138    30.813781    9491.5373    8195.7862    20189.751 
 1741500    289.45939   -5880.6851    29.895034    7446.6276    6639.1833     15675.46 
 1741600    301.17124   -5881.3062    31.104621    7962.3046    3879.4276    20111.766 
 1741700    293.20831   -5881.0214    30.282218    7081.3553    2180.1293    19441.786 
 1741800    281.81211   -5878.2148    29.105232    7463.0854    6373.1989    16901.919 
 1741900    297.48685   -5880.4316    30.724102    6683.4621    5515.5106    14592.897 
 1742000    301.34894   -5880.4574    31.122974    8149.3417    6356.5324    17947.423 
 1742100    313.89677   -5880.5247    32.418899    7267.9655    7002.5977    14734.515 
 1742200    311.16457   -5881.3468     32.13672    8904.9063    14463.838     12115.83 
 1742300    294.00292    -5879.544    30.364286    5538.7259    11523.763    5306.5111 
 1742400    314.28645   -5880.0955    32.459144    6541.2898    11503.434    8069.7217 
 1742500    311.88673   -5880.8706    32.211305    7680.7329    7617.4619    15093.482 
 1742600    300.57007   -5881.5967    31.042533    6160.9038    5027.1046    13611.064 
 1742700    285.43156   -5879.4575    29.479045    6502.1699    3174.8714    16932.518 
 1742800    302.43456   -5879.2614    31.235095    5618.3715     3475.568    13684.604 
 1742900    299.10125   -5879.4476    30.890835    5815.0196    3492.3698    14468.652 
 1743000    306.11674   -5879.8885    31.615386    6810.7707    6223.3833    14240.097 
 1743100    294.14243   -5878.4662    30.378693    6662.1773    4682.9208    15698.231 
 1743200    279.65407   -5878.8254    28.882353    7573.2187    3489.9611    19122.012 
 1743300    301.19041   -5879.9069      31.1066    9775.9381    9465.3465    19522.903 
 1743400    305.11126   -5879.3731    31.511542    6643.9023    9337.6146    10836.252 
 1743500    304.04895   -5880.6861    31.401828    7165.9746     6019.153    15431.634 
 1743600    297.90641   -5881.3501    30.767433    8045.7138    10827.443    12899.962 
 1743700     302.1201   -5879.6839    31.202618    10169.619     12519.92    17816.563 
 1743800    298.21946   -5879.9895    30.799765    8945.8427    10677.537    16066.323 
 1743900     300.9164   -5880.9929    31.078302    8530.9118    14417.108    11112.984 
 1744000    300.28956    -5879.175    31.013562    7849.6226     16236.22    7895.3344 
 1744100    301.69761   -5879.4356    31.158984    7973.6081    18088.068    5946.8036 
 1744200    296.24412   -5880.9901    30.595754    6675.3637     11718.08     8487.454 
 1744300    303.00065   -5881.9473     31.29356    8044.6972    14511.062    9059.2713 
 1744400    313.76994   -5880.6085      32.4058     6960.634     7855.576    12624.192 
 1744500    289.06516   -5880.9096    29.854319    6113.9703    7742.4559    11071.443 
 1744600    313.85202   -5880.1593    32.414277    8292.3805    13118.447     11725.28 
 1744700    302.37916    -5880.389    31.229374    8755.4662    16974.087    9292.9649 
 1744800    305.22077   -5881.6237    31.522852    8876.3569    16249.715    9957.5106 
 1744900    299.86395   -5881.2137    30.969605    8732.5759    16949.814    9327.8269 
 1745000    314.90008   -5882.8097     32.52252    9557.5303    18715.236    9692.3735 
 1745100    303.36417    -5882.765    31.331105    11106.348    20174.002    13024.323 
 1745200    290.44234   -5881.2779    29.996553     10075.19    18576.083    11903.846 
 1745300    274.11342   -5880.1944     28.31012    10557.286    23894.461    7990.9967 
 1745400    285.75573   -5881.4841    29.512525    8868.1861    16501.951    10521.889 
 1745500    291.78679   -5880.7835    30.135406    11009.288    17997.738    14937.612 
 1745600    302.46611   -5879.5523    31.238354    8560.8571    11538.919    13979.287 
 1745700    313.85086   -5879.5531    32.414157    9246.3449    14200.209    13424.454 
 1745800    307.96851   -5879.9797    31.806635    7152.1867    11522.042    9906.8239 
 1745900    309.37399   -5880.2065    31.951792    7817.7221    16734.403    6537.7891 
 1746000    296.51316   -5881.2075     30.62354    9943.5116    20159.144    9539.5683 
 1746100    293.35893   -5880.5368    30.297774    10347.823    18314.932    12962.023 
 1746200     297.6613   -5880.9421    30.742118    11107.108    19723.009    13621.727 
 1746300    302.48636    -5880.248    31.240445    10345.415    13438.562     17492.86 
 1746400    302.10445   -5879.9396    31.201002    10674.393    13076.834    18877.911 
 1746500    314.06882   -5878.8908    32.436668    9761.9113    13790.352    15251.195 
 1746600    310.56104   -5879.4468    32.074389    10313.579    14474.045    16020.725 
 1746700    305.37849   -5879.5527    31.539141    6449.5798    12079.438    7345.2913 
 1746800    293.74219   -5881.6106    30.337358    8122.2163    10625.266    13981.309 
 1746900    307.48901   -5880.3904    31.757113    8613.0147    12567.901    13406.527 
 1747000    302.39233   -5879.7433    31.230734    10817.067    16145.677    16362.583 
 1747100    283.99368   -5879.8148    29.330543    8206.6387    10313.497     14734.02 
 1747200    294.98174   -5880.0483    30.465377    10028.587     11061.72    19252.014 
 1747300    294.01209   -5880.0583    30.365232    9729.6474    12998.907    16528.506 
 1747400    307.42387   -5880.2143    31.750386    11076.538    14768.812    18162.249 
 1747500    291.92907   -5880.1973      30.1501    9845.1463    16561.444    13226.447 
 1747600    306.64957   -5879.3217    31.670417    12209.991    18283.343    17939.568 
 1747700    296.63614    -5879.874    30.636241    6923.5191    12805.923    8472.1444 
 1747800    300.60495    -5881.194    31.046135    5372.5987    6455.9048    10101.419 
 1747900     309.4977     -5880.14    31.964568    6031.9199    6008.8169    12250.431 
 1748000    301.51498   -5880.1413    31.140122    5731.4473    2829.8427     14503.81 
 1748100    305.45031   -5880.2248    31.546558    6906.9492    2302.9081     18260.26 
 1748200    308.16402   -5880.2314    31.826828    6387.0738    3554.1584    15875.308 
 1748300    299.36696   -5878.6785    30.918277    8696.3456    7506.9197    18981.155 
 1748400    302.81612   -5879.9303    31.274502    8491.4452    10259.027    15325.756 
 1748500    319.63948   -5881.9048       33.012    9935.8238     10494.97    18943.316 
 1748600    310.21398    -5880.579    32.038545    8247.6039    4351.9664    20170.242 
 1748700    311.35603   -5880.6097    32.156495    8755.9478    7067.8629    18770.927 
 1748800    303.30776   -5879.2492    31.325279    8708.9881    10241.701    16018.321 
 1748900    303.79584    -5879.827    31.375687    10346.467    10171.205    21109.913 
 1749000    297.04761   -5880.1547    30.678737    9541.7748    7487.0428    21072.551 
 1749100    294.96797   -5880.4854    30.463955    10340.316    12988.861    17899.359 
 1749200    294.95692   -5880.1454    30.462813    10528.577    14308.028    17060.044 
 1749300    311.92175   -5881.6941    32.214921     11780.75    18150.909    16983.378 
 1749400    283.58991   -5880.3552    29.288842    9193.4541     10806.36    16784.782 
 1749500    302.71069   -5879.1886    31.263613      10023.3    11637.014    18467.141 
 1749600     301.3221    -5880.017    31.120202    8828.2097    12270.342    14532.394 
 1749700    309.96886   -5878.2135    32.013229    8179.5846    5638.4024     19285.21 
 1749800    288.53129   -5880.9256    29.799182     9125.333     10916.21    16768.881 
 1749900    303.72537   -5880.1099    31.368408    10276.391    10945.976    19684.075 
 1750000    283.97274   -5879.8469     29.32838    8751.4055    10304.643    15822.488 
 1750100    296.98917   -5880.9382    30.672701    9041.4128    17221.989    9859.4109 
 1750200    299.90705   -5881.1776    30.974057    7592.1226    15260.092    7182.1999 
 1750300    286.43822    -5880.112    29.583011    6101.7394    13978.946    5112.6771 
 1750400    303.03846   -5881.3156    31.297466    8292.3672    16346.963    8900.3694 
 1750500    298.95839   -5880.5603    30.876081    9160.1979     15025.85    12682.267 
 1750600    301.64996   -5882.2102    31.154063    11012.171    18659.072    14255.118 
 1750700    305.93714   -5881.4115    31.596838    11629.459    17996.454    16979.874 
 1750800    308.71554   -5879.3067    31.883787    12109.179    20480.685    15618.798 
 1750900    318.89239   -5878.6848    32.934841    9235.5093    17652.889     10090.55 
 1751000    285.34188   -5878.6177    29.469783    8500.2642    14256.238    11497.218 
 1751100    304.51416   -5881.3074    31.449874    8413.2923    15973.761    9224.1293 
 1751200    304.52834   -5878.8851    31.451339    10576.819    20157.132    11788.347 
 1751300    305.45825   -5880.7998    31.547378    10649.707    23643.751    8238.0285 
 1751400    302.21074   -5880.2462     31.21198    10283.174    22649.374    8193.9225 
 1751500     299.0048   -5880.2548    30.880874    10408.358    18522.352    12778.968 
 1751600      296.527    -5880.654    30.624969    8527.1274    15363.295    10355.618 
 1751700    293.68131   -5881.8007     30.33107    6173.3651    14326.295    4475.0376 
 1751800    284.03536    -5881.211    29.334847    6849.5839    16448.761    4543.7893 
 1751900    305.65843   -5881.4031    31.568053    7047.3752    12592.098    8435.3475 
 1752000    310.15273   -5880.8215     32.03222    7587.8181    13801.742     8554.674 
 1752100     305.5568   -5881.0951    31.557557    6470.0626    14454.613    4750.1189 
 1752200    299.52734   -5879.6396    30.934841    6230.3572    13360.721    5666.1782 
 1752300    307.43817   -5880.4573    31.751863    10319.562    15650.896    15310.315 
 1752400     313.9996   -5878.7804    32.429519    9393.3836    16633.379    11327.891 
 1752500    301.27976   -5881.5903    31.115829    10900.482    15825.868    16742.642 
 1752600    296.84643   -5880.0478     30.65796    7473.3025    17470.872    5339.3007 
 1752700    301.33129   -5878.1685    31.121151    8214.4487    23376.297    1560.9296 
 1752800    294.27107   -5879.6246    30.391979    4752.3979    17530.645   -2327.0924 
 1752900    306.34073    -5880.881    31.638521    9007.8271    15592.514    11295.316 
 1753000    308.13565   -5881.1769    31.823898    8045.0461    12639.389    11475.546 
 1753100    303.37424   -5880.8147    31.332145    6399.6199    11873.162    7341.6091 
 1753200    301.71075   -5880.2211    31.160341    5468.6743    11006.645    5582.9991 
 1753300    299.84775   -5880.2851    30.967932     4825.769    5946.6276    9092.3124 
 1753400    302.54404   -5880.3981    31.246402    7491.9535    16436.892    5853.0606 
 1753500    302.71085   -5880.2855     31.26363    6845.9483    14624.083    5767.4782 
 1753600    294.31378   -5880.1449    30.396391    5371.4048    11203.991    5070.1186 
 1753700    294.68464   -5880.5156    30.434693    8880.4313    12413.275    14123.046 
 1753800    289.70702   -5882.0928    29.920609    8951.6874    11647.154    15449.379 
 1753900    311.12034   -5881.0326    32.132153    11062.229    15716.337      17204.4 
 1754000    311.51018   -5879.9238    32.172415    8046.2118    13716.123    10414.611 
 1754100    322.43633   -5879.9894    33.300856     4882.638    7953.8508    6723.6288 
 1754200    303.62531   -5880.5505    31.358075    4432.3204     5215.791      8354.53 
 1754300    302.43853   -5880.1919    31.235505    6387.7878    4745.5043     14553.41 
 1754400     296.1789   -5880.2255    30.589018      5268.09    2027.6765     14361.16 
 1754500     290.9896   -5880.4671    30.053073    6881.0914    2317.9205    18290.083 
 1754600    302.60769   -5881.4241    31.252976    6777.5954     6740.444     13751.17 
 1754700    285.72578   -5881.5319    29.509431    9492.8992    10941.819     17802.22 
 1754800    296.08479   -5880.0467    30.579298    9469.6804    12500.562    15952.966 
 1754900    288.63816   -5880.0639    29.810219    8610.5403    13674.577    12292.016 
 1755000    304.01498   -5880.9708    31.398319    7793.4376    10481.847    12851.149 
 1755100    307.73102   -5881.2568    31.782107    9526.9965    13782.657    14464.665 
 1755200    303.83328   -5880.6829    31.379553    8404.8998    14287.493     10654.15 
 1755300    290.29506   -5880.1096    29.981342    8749.8747     14477.41    12234.561 
 1755400    306.94809   -5880.3308    31.701247    6582.0455    9296.1309    10728.281 
 1755500    304.50465   -5881.0706    31.448891    7603.2788     10566.72    12249.012 
 1755600    294.09726   -5881.4265    30.374029    8971.0956    12593.232    14324.931 
 1755700    294.42117    -5881.655    30.407482    8662.4062    7128.5725    18878.412 
 1755800    290.28755   -5881.2409    29.980566     7975.904    12100.608    12262.246 
 1755900    285.75435   -5881.1587    29.512382    8292.2168    11474.261    13574.319 
 1756000     288.5408   -5882.5651    29.800164    10071.648     14388.56    15568.746 
 1756100    304.28683   -5881.7524    31.426395    9026.3969    11335.427    15652.139 
 1756200    297.81466   -5880.9401    30.757957    9240.3718    13196.301    14315.316 
 1756300    290.41589   -5880.7527    29.993821    10832.749     17267.01    15485.423 
 1756400    285.59988   -5880.1212    29.496429    10332.025     12234.28     19041.34 
 1756500    299.11201   -5881.4937    30.891946    11358.359    11761.728    22025.078 
 1756600    288.69632   -5880.5206    29.816226    5513.3042    3192.9702    13910.361 
 1756700    300.40382   -5880.3673    31.025363    7485.9197    7403.5194    14874.619 
 1756800    322.50183   -5881.3623     33.30762    8276.3396    3845.5544    20462.022 
 1756900    315.24043   -5879.4128    32.557671     5115.926    454.31295    14933.601 
 1757000    311.27551   -5878.4626    32.148179    7671.0913    7664.2107    15649.723 
 1757100    302.32075   -5879.7595    31.223341    8271.8023    6560.8944    18217.204 
 1757200    293.28435   -5880.0329    30.290072    10284.515    10217.094    20534.249 
 1757300    297.31144   -5880.3504    30.705985    9404.6137    13070.929    15384.585 
 1757400    305.25806   -5880.3853    31.526703    7144.0309    10579.846    11212.703 
 1757500    293.00181   -5879.8214    30.260891    8351.0827    13366.112     12045.78 
 1757600    305.27429   -5879.2009     31.52838    6648.0937     11270.23    8936.5077 
 1757700     303.1835   -5880.4295    31.312445    7015.0535    7131.2025     13720.39 
 1757800    297.21636   -5879.9386    30.696165    8211.4339    8644.7366    16157.595 
 1757900    292.39495   -5882.4267    30.198216    10005.945    13903.957     15752.98 
 1758000    298.72487   -5881.1041    30.851962    10394.755    13889.051    17447.819 
 1758100    295.54511   -5880.2853    30.523561     9556.759    11656.535    17222.957 
 1758200    300.15316   -5880.8991    30.999475    10604.333    14582.183    17009.675 
 1758300     301.0111   -5881.2094    31.088082    10903.739    16997.896    15367.153 
 1758400    293.48679   -5880.4051     30.31098    8525.9246    7061.2037    18324.772 
 1758500    296.09745   -5880.7909    30.580606    11073.009    11120.086    21892.556 
 1758600    308.99309   -5879.9561    31.912453    10247.546    9553.5412    20794.477 
 1758700    310.09625   -5878.9946    32.026386    9165.9945    8391.2275    19537.853 
 1758800    289.29404   -5880.3312    29.877957    9188.7259    5261.2452    22635.051 
 1758900    303.77485   -5880.1806    31.373519    10096.756     8679.081    21350.508 
 1759000    291.02232   -5882.0996    30.056452    9807.2853    12396.346    16973.147 
 1759100    298.69299   -5881.5444     30.84867    8246.5449    5807.4337    18947.392 
 1759200    294.39583   -5881.3486    30.404865    6385.1057    5075.7899    14193.086 
 1759300    288.11913   -5881.6276    29.756614    4366.1682    873.86581    12800.172 
 1759400     288.7536   -5881.3965    29.822142    5001.2099    4911.9325    10615.185 
 1759500    281.97545   -5880.5588    29.122102    7730.2705    8881.9862    14544.489 
 1759600    290.80962   -5879.9444    30.034485    6942.6317    9570.3981     12045.93 
 1759700    316.16937    -5881.104    32.653611    10082.301    11826.816     17930.16 
 1759800    315.73077   -5881.0378    32.608313    9377.1517    15118.557    12903.698 
 1759900    289.67941   -5881.5009    29.917758    9172.8169    13254.448    13928.168 
 1760000    295.73229     -5881.34    30.542892    5210.2296    8731.3065    7138.9465 
 1760100    303.79684   -5881.2023     31.37579    7940.7363    15922.587    7847.9344 
 1760200    310.00567    -5879.789    32.017031    8925.6174     20898.05    5965.9934 
 1760300    299.99254    -5881.008    30.982886    7892.6544    14042.492    9575.9116 
 1760400    292.62328   -5880.3618    30.221798    7381.2349    10693.801     11393.82 
 1760500    298.77847    -5881.179    30.857499    8643.8076    13803.141    11772.116 
 1760600     284.4258   -5882.1818    29.375171    8632.6223    13271.864    12959.457 
 1760700    286.66907   -5881.2051    29.606853    8438.6484    10593.927    14956.934 
 1760800    290.92512   -5882.8054    30.046414     7150.087    6051.0623    15379.985 
 1760900    293.71588   -5880.8082     30.33464    7022.6297    8443.1977    12737.651 
 1761000    297.20295   -5880.3512    30.694781    6078.8273    3863.2143    14354.635 
 1761100    297.30371    -5880.303    30.705187    5905.9082    7279.0075    10947.333 
 1761200    307.97023   -5882.1264    31.806813    7335.3979    10156.441    11378.729 
 1761300    304.90806   -5879.8809    31.490556    6116.6084    7353.2151    11153.157 
 1761400    306.93438   -5881.8409    31.699832     6993.213    11366.141    9336.4537 
 1761500    304.57978   -5880.8912    31.456651    7563.7435     17776.95    5445.0588 
 1761600    312.52111   -5881.3243    32.276823    6396.6821    17160.143    2134.5993 
 1761700    306.02263   -5880.2673    31.605667    6370.7955    14010.133    5009.7069 
 1761800    306.39541   -5879.7707    31.644168    7390.1518    12938.805    9282.0581 
 1761900    298.82992   -5880.4993    30.862812    7393.3964     13496.47    8499.5484 
 1762000    296.60199   -5880.8707    30.632714    6760.1068    10337.321    10089.077 
 1762100    294.58318   -5880.3391    30.424214    5821.3896    5327.0491    12017.738 
 1762200    305.68761    -5879.824    31.571066    3239.1325    3415.9232    6947.8342 
 1762300    304.14991   -5879.8324    31.412255    4032.4344    9393.7331    2705.7397 
 1762400    310.73254   -5879.3467    32.092102     5434.778    9193.2119    7434.2327 
 1762500    296.52072   -5878.5707     30.62432    8676.7868    14778.571    11289.379 
 1762600     308.4117   -5882.7687    31.852408    6794.3542    5012.1767    14848.357 
 1762700    296.76904   -5881.8619    30.649967    8711.2324    10918.295    14928.917 
 1762800    290.71433   -5880.2664    30.024644    8175.6685    12945.629    12103.034 
 1762900    316.55212   -5880.1317    32.693141    7905.6264     9551.485    13930.668 
 1763000    301.87795   -58