6
Atoms. Timestep: 0
C 1.23 4.93673 0
C 1.23 6.3837 0
C 2.46 4.2558 0
C 3.69 4.93673 0
C 3.69 6.3837 0
C 2.46 7.06463 0
