6
Atoms. Timestep: 16
C 1.25507 4.96462 0
C 1.25507 6.3558 0
C 2.46 4.26922 0
C 3.66493 4.96462 0
C 3.66493 6.3558 0
C 2.46 7.05121 0
