800
Atoms. Timestep: 50000
1 75.6682 43.6984 3.86691
1 1.23415 0.732386 3.86668
1 27.7208 43.6599 3.75747
1 3.77364 0.699461 3.57489
1 30.2444 43.6617 3.52492
1 6.282 0.737129 3.49253
1 32.7843 43.703 3.5751
1 8.79054 0.742402 3.67539
1 10.087 0.0154061 3.71869
1 11.3384 0.758348 3.60016
1 12.5592 0.0299764 3.41761
1 13.8375 0.730752 3.46144
1 15.1309 0.00155171 3.42701
1 16.3752 0.695923 3.70317
1 17.625 -0.0454467 3.72176
1 18.8842 0.676359 3.82684
1 20.1767 -0.0376261 3.70285
1 21.4263 0.706838 3.70402
1 22.6852 -0.0117569 3.70049
1 23.9734 0.742444 3.87243
1 50.4618 43.686 3.86894
1 26.469 0.697699 3.90892
1 27.7451 -0.0657988 3.89706
1 29.0047 0.704195 3.92522
1 30.2756 -0.0191339 3.75072
1 31.5598 0.719763 3.81472
1 32.8157 -0.00292489 3.85318
1 34.0696 0.727468 3.86932
1 35.322 -0.0284863 4.00949
1 36.5617 0.693431 3.96312
1 37.8079 0.00983785 4.11733
1 39.0942 0.737876 -0.0705487
1 65.5649 43.6845 -0.19794
1 41.599 0.736727 3.82964
1 68.0984 43.7015 3.86522
1 44.119 0.736201 4.03437
1 70.6257 43.7065 4.06514
1 46.6382 0.72447 4.07009
1 47.9151 0.0416793 3.91138
1 49.1738 0.746658 3.88692
1 1.21796 2.19446 3.94614
1 2.468 2.92478 3.77053
1 3.75095 2.17426 3.49245
1 5.04051 2.91501 3.38621
1 6.31405 2.20011 3.28479
1 7.57484 2.91893 3.28057
1 8.82107 2.20423 3.51357
1 10.046 2.94837 3.71122
1 11.3129 2.20828 3.72413
1 12.6006 2.92719 3.71234
1 13.8424 2.1756 3.78133
1 15.0969 2.86689 3.89465
1 16.3427 2.13398 3.94326
1 17.6187 2.85389 3.96735
1 18.9093 2.1269 3.89194
1 20.1853 2.8608 3.87691
1 21.4105 2.15531 3.69482
1 22.7126 2.89509 -0.32332
1 23.9704 2.18978 3.73547
1 25.2438 2.92611 3.70598
1 26.5318 2.1628 3.73897
1 27.7876 2.86709 3.87612
1 29.0034 2.14961 3.90372
1 30.2944 2.90629 3.83426
1 31.5452 2.18574 3.88706
1 32.8063 2.8986 3.82437
1 34.0566 2.15501 -0.27936
1 35.2799 2.87989 -0.260162
1 36.5384 2.16564 3.79082
1 37.7863 2.94047 3.82854
1 39.0507 2.20617 -0.164388
1 40.3001 2.93112 3.9234
1 41.5617 2.2315 3.79525
1 42.8108 2.98856 3.88776
1 44.0795 2.22386 4.13089
1 45.3575 2.97121 4.12961
1 46.6142 2.21299 4.0731
1 47.8986 2.9201 4.02085
1 49.1585 2.20455 3.98879
1 50.3784 2.90384 3.96296
1 2.47806 4.38017 3.71999
1 3.75205 5.09233 3.57866
1 5.03455 4.35452 3.40453
1 6.3212 5.09528 3.33206
1 7.58269 4.36705 3.32515
1 8.83528 5.12899 3.61275
1 10.0405 4.41443 3.80074
1 11.3662 5.11267 3.71736
1 12.6363 4.38308 3.68496
1 13.8992 5.08154 3.63447
1 15.1355 4.35132 3.71397
1 16.3725 5.06654 3.82677
1 17.6358 4.33988 3.92287
1 18.9059 5.04614 4.00098
1 20.1818 4.30732 -0.139024
1 21.4231 5.03622 -0.0802471
1 22.71 4.34199 -0.201053
1 23.9769 5.0765 -0.164364
1 25.2412 4.36229 3.87013
1 26.4947 5.07034 3.92039
1 27.8011 4.3263 3.93093
1 29.0719 5.06124 4.01438
1 30.3027 4.37386 3.85485
1 31.56 5.07857 3.83669
1 32.7927 4.35919 3.78463
1 34.0354 5.09559 3.75957
1 35.2964 4.36163 -0.194378
1 36.5484 5.11706 -0.070398
1 37.7756 4.40833 3.88682
1 39.0752 5.12325 3.75105
1 40.317 4.39873 3.85367
1 41.6002 5.15704 3.79509
1 42.8364 4.43092 3.84104
1 44.1142 5.15737 3.87622
1 45.3827 4.40908 3.97358
1 46.6397 5.11358 4.01922
1 47.9008 4.37996 3.99683
1 49.1394 5.09978 3.9834
1 50.3888 4.36901 3.9773
1 51.6629 5.09575 3.82783
1 3.75533 6.53708 3.7114
1 5.04836 7.28929 3.60232
1 6.33576 6.58014 3.45607
1 7.56893 7.27277 3.70193
1 8.82376 6.56686 3.67621
1 10.0678 7.31042 3.68387
1 11.3922 6.56339 3.65146
1 12.6523 7.27702 3.52834
1 13.8939 6.57713 -0.541741
1 15.0884 7.27882 -0.272603
1 16.3621 6.52973 -0.164199
1 17.6176 7.23276 -0.0187343
1 18.9256 6.50535 -0.0497936
1 20.1785 7.2357 -0.0171961
1 21.439 6.50506 -0.0147505
1 22.7008 7.24124 -0.0768009
1 23.9516 6.51562 -0.120241
1 25.1984 7.26159 0.0574534
1 26.5006 6.50794 4.08675
1 27.761 7.23559 4.06415
1 29.0112 6.53692 4.05017
1 30.2868 7.2912 4.11178
1 31.5334 6.54273 3.93883
1 32.7815 7.27419 3.8164
1 34.0572 6.55479 3.69512
1 35.3252 7.27389 3.8456
1 36.5625 6.56286 3.94883
1 37.8255 7.29029 4.0239
1 39.0644 6.59352 3.84017
1 40.3163 7.34078 -0.103198
1 41.6047 6.64422 -0.161484
1 42.8481 7.38145 -0.091945
1 44.0852 6.61794 3.96693
1 45.3675 7.34575 -0.0995704
1 46.6103 6.58814 -0.141331
1 47.8753 7.33076 -0.1488
1 49.1276 6.5915 3.95342
1 50.3963 7.29337 4.06176
1 51.6586 6.56837 3.98097
1 52.9743 7.26338 3.98527
1 55.4904 8.74623 3.71863
1 6.28458 9.43841 3.70253
1 7.55635 8.68954 3.80513
1 8.82753 9.47215 3.89918
1 10.099 8.73465 3.767
1 11.351 9.48299 3.63227
1 12.6346 8.746 3.5798
1 13.8796 9.45026 3.85424
1 15.1396 8.71281 -0.258046
1 16.3949 9.45383 3.9174
1 17.6356 8.69435 4.03913
1 18.8885 9.37964 3.93397
1 20.1623 8.65584 -0.0353841
1 21.4328 9.40971 -0.0289844
1 22.6882 8.69934 -0.111214
1 23.9354 9.42605 -0.0398448
1 25.2219 8.69357 -0.0291991
1 26.4646 9.42979 -0.117656
1 27.7398 8.69894 3.99497
1 29.0145 9.44561 4.2053
1 30.3203 8.73074 4.2038
1 31.5673 9.4573 4.2684
1 32.8151 8.7222 4.04654
1 34.0683 9.41274 4.18661
1 35.3405 8.72262 3.99927
1 36.5886 9.46466 4.16095
1 37.8151 8.7656 -0.0464562
1 39.0654 9.49503 -0.081505
1 40.3183 8.78283 -0.00359079
1 41.6163 9.52672 0.0223657
1 42.8314 8.82207 0.088456
1 44.0869 9.54361 0.192076
1 45.3459 8.83884 0.00657969
1 46.5858 9.5337 0.000328106
1 47.8739 8.79757 -0.115728
1 49.1501 9.52008 0.0616834
1 50.4382 8.78532 4.17664
1 51.6951 9.47562 4.2357
1 52.9991 8.71495 4.12243
1 54.2269 9.46273 3.93049
1 6.31542 10.9218 3.90887
1 7.56765 11.6513 -0.143408
1 8.8196 10.9263 3.97196
1 10.0822 11.6633 3.88318
1 11.3439 10.9376 3.84063
1 12.6031 11.6583 3.99128
1 13.8797 10.8907 3.96077
1 15.147 11.6294 3.92083
1 16.3978 10.8874 3.87648
1 17.6464 11.5933 3.83927
1 18.8806 10.8652 3.82587
1 20.1567 11.6043 3.82863
1 21.4258 10.8664 3.98806
1 22.6793 11.6105 4.06792
1 23.9398 10.8973 0.0391356
1 25.1948 11.6564 0.0598477
1 26.4658 10.9008 -0.172994
1 27.7738 11.6481 3.99883
1 29.0349 10.9231 4.17703
1 30.2815 11.6357 4.40721
1 31.5408 10.9294 4.42307
1 32.7953 11.6196 4.40677
1 34.0952 10.8776 4.44223
1 35.3272 11.6067 0.186473
1 36.5743 10.9216 0.200922
1 37.8274 11.6475 0.186983
1 39.0835 10.9587 -0.0077998
1 40.335 11.6868 0.167122
1 41.6032 10.9588 0.277191
1 42.8371 11.6643 0.678888
1 44.103 10.9712 0.501729
1 45.367 11.6944 0.468078
1 46.6297 10.9825 0.312143
1 47.8806 11.691 0.238711
1 49.1403 10.9405 0.277166
1 50.4265 11.6517 0.217955
1 51.7028 10.9048 0.19426
1 52.9896 11.6345 0.187435
1 54.2193 10.9429 -0.0675877
1 55.4889 11.6499 -0.0913645
1 58.0031 13.1114 -0.00678505
1 8.83689 13.8397 0.0151242
1 10.1057 13.0789 3.95904
1 11.371 13.7983 4.06616
1 12.6048 13.0826 3.95532
1 13.8518 13.7743 4.00959
1 15.1275 13.0378 3.9703
1 16.3702 13.7781 3.9325
1 17.6241 13.0424 3.84755
1 18.8893 13.7883 3.88761
1 20.1597 13.0412 3.73032
1 21.4269 13.7694 3.85547
1 22.6918 13.0479 3.96265
1 23.9365 13.7882 3.98313
1 25.1863 13.1011 -0.00832306
1 26.4442 13.8408 -0.140812
1 27.7323 13.0938 -0.0144504
1 29.0193 13.8408 0.0547203
1 30.2668 13.1273 0.220035
1 31.5315 13.8535 0.196853
1 32.7989 13.0977 4.29642
1 34.0444 13.8308 0.140583
1 35.307 13.0906 0.159825
1 36.5248 13.809 0.429994
1 37.8222 13.0863 0.368944
1 39.0763 13.8065 0.541176
1 40.3513 13.104 0.476975
1 41.6012 13.8107 0.677045
1 42.8717 13.1084 0.794931
1 44.1618 13.8634 0.90172
1 45.4041 13.1317 0.616877
1 46.6525 13.8509 0.532317
1 47.9084 13.1277 0.335369
1 49.1555 13.8582 0.355534
1 50.4269 13.1146 0.258719
1 51.722 13.8538 0.385504
1 52.9857 13.1009 0.297038
1 54.2554 13.8576 0.254799
1 55.5152 13.1255 0.0595754
1 56.7509 13.8031 0.198754
1 8.84286 15.2729 0.197206
1 10.1154 16.0043 0.203064
1 11.3574 15.2815 4.27412
1 12.6133 15.985 4.34061
1 13.8688 15.2397 4.18762
1 15.0913 16.0053 3.96087
1 16.3405 15.2597 3.89329
1 17.5951 15.9767 3.92345
1 18.8888 15.2432 4.10877
1 20.1484 15.9722 4.03082
1 21.3957 15.2192 3.94727
1 22.6745 15.9753 3.94616
1 23.9128 15.2631 3.79977
1 25.2129 16.0004 3.74749
1 26.4508 15.2834 -0.192727
1 27.7267 16.0218 -0.0956303
1 29.0026 15.3057 0.0379776
1 30.2612 16.0386 0.0699061
1 31.5339 15.3281 0.205651
1 32.7601 16.0491 0.165204
1 34.0371 15.3062 0.240683
1 35.3074 15.9854 0.383467
1 36.553 15.2803 0.552604
1 37.8298 16.0207 0.629284
1 39.0808 15.2945 0.639946
1 40.3295 15.989 0.564318
1 41.5902 15.2542 0.674981
1 42.8699 15.9907 0.773795
1 44.151 15.2884 0.803631
1 45.4275 16.0433 0.64207
1 46.6671 15.2999 0.599526
1 47.908 16.0265 0.610222
1 49.1979 15.2915 0.58584
1 50.4122 16.0001 0.478015
1 51.7287 15.2717 0.522686
1 53.0274 16.0135 0.655307
1 54.2427 15.2959 0.48112
1 55.4944 16.0148 0.379624
1 56.7678 15.2419 0.417794
1 58.0285 15.9932 0.341284
1 10.113 17.451 0.149611
1 11.3316 18.1745 0.159043
1 12.6007 17.4449 0.274615
1 13.8491 18.1886 0.0774763
1 15.0924 17.4832 3.9388
1 16.3831 18.2018 4.01682
1 17.6554 17.4431 3.98908
1 18.8888 18.1649 4.02651
1 20.1333 17.4518 4.02776
1 21.402 18.1708 4.00805
1 22.6689 17.4193 4.04603
1 23.957 18.1844 4.01445
1 25.211 17.4751 3.86571
1 26.4894 18.2395 3.9163
1 27.7578 17.5228 3.91426
1 28.9954 18.2383 -0.0665659
1 30.2357 17.4994 0.0424884
1 31.5402 18.2378 0.140129
1 32.7836 17.4812 0.177002
1 34.0505 18.1929 0.329373
1 35.2902 17.4581 0.427357
1 36.5676 18.1821 0.519539
1 37.8168 17.4569 0.657781
1 39.0873 18.1824 0.636168
1 40.3547 17.4521 0.642172
1 41.6175 18.1859 0.655059
1 42.8712 17.4448 0.743527
1 44.145 18.1973 0.796234
1 45.3858 17.4938 0.534759
1 46.6109 18.2457 0.481023
1 47.9136 17.4967 0.510233
1 49.1568 18.2204 0.366436
1 50.4372 17.4527 0.329823
1 51.7241 18.177 0.422783
1 53.0207 17.4624 0.669571
1 54.263 18.1963 0.652087
1 55.5067 17.442 0.459486
1 56.7553 18.1583 0.354349
1 58.0031 17.4394 0.232663
1 59.2794 18.1596 0.167657
1 61.7696 19.6017 0.0488089
1 12.6227 20.3432 0.162971
1 13.8751 19.6365 0.197182
1 15.1297 20.4002 0.349333
1 16.391 19.6658 0.175685
1 17.6679 20.4047 0.08815
1 18.9137 19.6548 -0.0366639
1 20.1685 20.3523 0.0242465
1 21.3972 19.6585 4.02781
1 22.6907 20.3874 3.97947
1 23.9389 19.6796 4.02854
1 25.2181 20.4482 4.05052
1 26.4835 19.6995 4.06584
1 27.7522 20.4201 4.04436
1 28.9967 19.7024 -0.0100414
1 30.2766 20.4433 -0.0618786
1 31.5542 19.6989 0.071898
1 32.792 20.4172 0.225732
1 34.0273 19.6578 0.390372
1 35.3143 20.362 0.350898
1 36.5641 19.6214 0.37726
1 37.8512 20.3755 0.481829
1 39.0966 19.6666 0.684013
1 40.3235 20.3924 0.738536
1 41.629 19.6672 0.694947
1 42.8778 20.4145 0.778555
1 44.1582 19.6758 0.866196
1 45.3906 20.4088 0.85228
1 46.6192 19.7272 0.568996
1 47.9252 20.4369 0.550699
1 49.1773 19.6958 0.475723
1 50.4624 20.376 0.530809
1 51.7254 19.6092 0.402648
1 52.9844 20.3049 0.37617
1 54.2626 19.6243 0.610926
1 55.4815 20.3488 0.501737
1 56.7505 19.6112 0.458156
1 57.9884 20.3639 0.244154
1 59.2452 19.6274 0.0777295
1 60.5198 20.3447 0.0141502
1 63.0507 21.826 0.181256
1 13.8835 22.5847 0.294039
1 15.1295 21.8624 0.313007
1 16.3996 22.5749 0.363976
1 17.651 21.8644 0.165272
1 18.9404 22.5917 0.152157
1 20.1946 21.8313 4.1582
1 21.4797 22.5894 4.13095
1 22.7085 21.8596 3.90388
1 23.9869 22.6 3.84553
1 25.2364 21.9032 3.91576
1 26.4961 22.6127 3.66385
1 27.7525 21.857 3.75634
1 29.0628 22.5689 -0.552999
1 30.3094 21.8609 -0.24636
1 31.5603 22.6355 -0.0898634
1 32.8009 21.9096 0.185498
1 34.0577 22.6118 0.331618
1 35.3373 21.8406 0.345796
1 36.5663 22.5657 0.313881
1 37.8241 21.8158 0.474392
1 39.0964 22.5615 0.602224
1 40.3178 21.8501 0.783937
1 41.5851 22.6011 0.905342
1 42.8445 21.8856 0.822284
1 44.0962 22.6207 0.871974
1 45.3961 21.8646 0.947378
1 46.6703 22.588 0.864452
1 47.932 21.8429 0.645274
1 49.1562 22.5784 0.514252
1 50.4662 21.8365 0.493643
1 51.7048 22.5502 0.288319
1 52.9586 21.7757 0.204249
1 54.1891 22.5354 4.40968
1 55.4451 21.7906 4.53204
1 56.7281 22.4931 0.319579
1 57.9659 21.7986 0.263319
1 59.242 22.5222 0.0960357
1 60.5144 21.8107 0.0443616
1 61.7601 22.5335 0.112961
1 64.3297 24.0651 0.281694
1 15.137 24.7759 0.332404
1 16.3971 24.0448 0.525146
1 17.6411 24.7602 0.504761
1 18.9594 24.0015 0.321664
1 20.2331 24.7501 0.233739
1 21.4926 24.0186 0.198346
1 22.7545 24.7713 -0.0363282
1 23.9966 24.0644 3.84379
1 25.2507 24.8147 3.70388
1 26.515 24.0841 3.58819
1 27.7558 24.8056 3.68809
1 29.0536 24.0546 -0.576891
1 30.3198 24.8028 -0.406516
1 31.596 24.0691 -0.204075
1 32.8154 24.7816 4.27737
1 34.0726 24.0521 0.319654
1 35.3363 24.7373 0.231864
1 36.5854 24.0294 0.244044
1 37.8235 24.7917 0.382664
1 39.0925 24.0398 0.606217
1 40.3279 24.7633 0.882265
1 41.5847 24.0264 0.961083
1 42.8542 24.7859 1.08029
1 44.1057 24.0504 0.988559
1 45.3715 24.783 0.845397
1 46.6686 24.0446 0.774556
1 47.9187 24.7435 0.416432
1 49.1697 24.0049 0.329669
1 50.422 24.7418 0.250997
1 51.6799 24.0159 0.286296
1 52.9465 24.757 0.312963
1 54.2139 23.994 4.45922
1 55.4649 24.7237 0.345392
1 56.7797 23.9544 0.299189
1 58.0202 24.6748 0.187787
1 59.2492 23.973 0.172179
1 60.5057 24.6898 0.0806288
1 61.7565 24.0054 0.063204
1 63.0193 24.7412 0.250996
1 15.1191 26.214 0.307605
1 16.3943 26.9591 0.431552
1 17.6535 26.2153 0.386383
1 18.9159 26.9364 0.218498
1 20.2158 26.2172 4.21668
1 21.4965 26.974 4.15646
1 22.7311 26.2594 4.11763
1 23.977 26.9862 4.03895
1 25.2304 26.277 4.03055
1 26.5115 26.9898 4.24017
1 27.7767 26.2493 4.01359
1 29.0451 26.9738 3.99968
1 30.3195 26.2578 3.94725
1 31.5547 26.9632 4.0538
1 32.7939 26.2181 4.25199
1 34.0423 26.9806 4.48866
1 35.3289 26.239 4.35421
1 36.6108 26.9533 0.247991
1 37.8633 26.2372 0.308539
1 39.1074 26.9522 0.485914
1 40.3434 26.1864 0.747553
1 41.6368 26.9551 0.87018
1 42.8765 26.2671 0.970697
1 44.16 26.981 0.661971
1 45.3841 26.2571 0.658695
1 46.64 26.9377 0.399867
1 47.8926 26.2176 0.340099
1 49.1628 26.9384 0.255471
1 50.4006 26.2078 0.226372
1 51.6736 26.9143 4.26905
1 52.9438 26.1841 0.256402
1 54.1857 26.9 0.168569
1 55.4523 26.166 0.153822
1 56.7314 26.9127 0.122898
1 58.0174 26.1843 0.0547398
1 59.2501 26.8945 0.259489
1 60.4888 26.158 0.110888
1 61.7489 26.9205 0.25877
1 63.0145 26.2209 0.308321
1 64.3006 26.9551 0.242873
1 66.8541 28.4005 0.490019
1 17.6842 29.0996 0.448581
1 18.9347 28.3855 0.269436
1 20.1904 29.1407 0.258113
1 21.4903 28.431 0.0779272
1 22.7527 29.1525 4.29169
1 23.9726 28.4196 4.28282
1 25.27 29.1485 4.41925
1 26.5233 28.4302 4.32584
1 27.7886 29.1866 4.12838
1 29.0478 28.4273 3.99613
1 30.2914 29.139 3.92961
1 31.5523 28.4094 4.04789
1 32.7846 29.1647 4.16408
1 34.039 28.4131 4.36389
1 35.3237 29.1427 4.2493
1 36.5999 28.4252 0.265859
1 37.8359 29.1497 0.320944
1 39.0988 28.4372 0.432292
1 40.3601 29.1666 0.543331
1 41.6611 28.4136 0.621091
1 42.8896 29.1033 0.376497
1 44.1246 28.3725 0.322478
1 45.3693 29.0733 0.141412
1 46.6377 28.3533 0.16233
1 47.8848 29.0761 0.126312
1 49.1579 28.3993 4.34717
1 50.3925 29.0785 4.09854
1 51.6578 28.3257 4.06115
1 52.9184 29.0765 3.97979
1 54.1798 28.3436 0.0137768
1 55.4364 29.0761 4.31929
1 56.6878 28.3566 0.324085
1 57.9688 29.07 0.572158
1 59.2386 28.3628 0.487712
1 60.5005 29.1405 0.529577
1 61.7747 28.4113 0.35334
1 63.0575 29.2008 0.351267
1 64.3133 28.4119 0.295845
1 65.5888 29.1094 0.390887
1 68.1235 30.5713 0.505061
1 18.9433 31.2934 0.409169
1 20.1716 30.5947 0.372101
1 21.4446 31.3222 0.41354
1 22.7383 30.6114 0.26698
1 23.9519 31.3647 4.25259
1 25.236 30.6152 4.16552
1 26.4965 31.3287 -0.249386
1 27.7784 30.6233 3.91005
1 29.0498 31.3761 3.88322
1 30.2902 30.6458 3.84032
1 31.5275 31.3564 3.96692
1 32.7737 30.6096 4.03875
1 34.0298 31.3455 4.06305
1 35.2983 30.5931 4.12242
1 36.5512 31.3198 0.0049303
1 37.8096 30.6013 0.217163
1 39.0845 31.3316 0.315039
1 40.3646 30.6069 0.482523
1 41.6213 31.3263 0.282829
1 42.8748 30.5515 0.143507
1 44.1007 31.2742 0.0203231
1 45.3485 30.498 -0.0548032
1 46.6102 31.2474 -0.118783
1 47.8751 30.5475 4.11899
1 49.1609 31.2595 3.96895
1 50.3994 30.5306 3.9595
1 51.6784 31.2383 3.79208
1 52.9162 30.5278 3.81277
1 54.1791 31.2306 3.89093
1 55.4151 30.541 4.18744
1 56.7084 31.2767 4.34572
1 57.9236 30.5863 4.64897
1 59.2373 31.3162 4.6389
1 60.4793 30.6097 0.543317
1 61.7588 31.3448 0.486551
1 63.0308 30.636 0.282113
1 64.3382 31.37 0.316091
1 65.638 30.6259 0.444596
1 66.9294 31.3194 0.652047
1 69.4093 32.8013 0.45624
1 20.204 33.515 0.391871
1 21.4513 32.7761 0.423997
1 22.7636 33.5179 0.353587
1 23.9762 32.7972 0.186138
1 25.258 33.5287 0.0125298
1 26.4942 32.7982 -0.284588
1 27.7814 33.5218 -0.189194
1 29.0466 32.8105 -0.232357
1 30.312 33.5239 -0.0640897
1 31.567 32.812 4.00667
1 32.7847 33.5174 4.02306
1 34.0265 32.7936 4.01515
1 35.2775 33.5154 4.04103
1 36.5508 32.769 -0.0366384
1 37.8581 33.4642 -0.0544889
1 39.1116 32.7469 0.0755305
1 40.3403 33.4628 0.0437801
1 41.601 32.7609 0.17016
1 42.8794 33.4936 0.230546
1 44.1346 32.7257 0.115165
1 45.4072 33.4594 0.0275473
1 46.6245 32.7305 -0.107788
1 47.9259 33.4661 3.84065
1 49.1695 32.7654 3.75669
1 50.4515 33.463 3.70317
1 51.7123 32.6941 3.6833
1 52.9971 33.4342 3.65672
1 54.222 32.6935 3.69287
1 55.5273 33.4314 3.68302
1 56.7628 32.7013 4.0459
1 58.0505 33.4469 4.0187
1 59.274 32.7774 4.47028
1 60.5457 33.5238 0.315228
1 61.7724 32.8065 0.455411
1 63.0729 33.5303 0.475498
1 64.3254 32.8056 0.559377
1 65.6158 33.5273 0.626864
1 66.9201 32.7863 0.693558
1 68.1645 33.5441 0.620796
1 70.6341 34.9854 0.41313
1 21.4579 35.6859 0.460958
1 22.7592 34.9735 0.376764
1 23.9826 35.7201 0.25062
1 25.2525 34.964 0.0492478
1 26.5026 35.6996 -0.190834
1 27.7759 34.9483 -0.205581
1 29.0444 35.6722 -0.234925
1 30.2889 35.0063 4.02672
1 31.5295 35.7231 3.95989
1 32.7937 34.9879 3.94314
1 34.0531 35.6925 3.88066
1 35.2792 34.9328 -0.240532
1 36.5543 35.6734 -0.265345
1 37.8212 34.9497 -0.135056
1 39.0575 35.6665 -0.125572
1 40.3543 34.9332 -0.099111
1 41.582 35.6741 0.0181623
1 42.8367 34.9537 0.18101
1 44.1119 35.685 4.23127
1 45.3994 34.9107 4.22057
1 46.6409 35.6314 3.98344
1 47.9299 34.9018 3.85724
1 49.1545 35.6373 3.68319
1 50.4637 34.8956 3.66735
1 51.7604 35.6154 3.61068
1 53.0358 34.8787 3.6251
1 54.2907 35.6019 3.5787
1 55.5448 34.8828 3.54189
1 56.8169 35.5884 3.41478
1 58.0694 34.8404 3.58675
1 59.3265 35.6123 -0.39646
1 60.5759 34.9518 -0.0541703
1 61.8458 35.6864 -0.227754
1 63.0586 34.9876 0.173305
1 64.3521 35.6865 0.0859224
1 65.5779 35.0092 0.391364
1 66.8615 35.7672 0.470586
1 68.1269 35.0198 0.472223
1 69.3973 35.7491 0.40639
1 71.9366 37.176 0.326692
1 22.7227 37.9012 0.210742
1 23.9958 37.1653 0.19907
1 25.2349 37.8752 -0.155386
1 26.4786 37.1429 -0.189636
1 27.7539 37.846 3.86698
1 29.009 37.1441 -0.13409
1 30.2948 37.903 4.00853
1 31.5637 37.1692 -0.136688
1 32.8401 37.8873 3.92807
1 34.0792 37.1511 3.76056
1 35.3169 37.8783 3.7659
1 36.5559 37.1408 3.85184
1 37.8377 37.8388 3.73064
1 39.0714 37.1233 3.80886
1 40.3172 37.8196 3.72044
1 41.5911 37.1177 3.95322
1 42.8217 37.8657 3.98947
1 44.1006 37.1409 4.03773
1 45.3503 37.8398 3.87923
1 46.6297 37.0894 3.96945
1 47.8736 37.8134 4.02867
1 49.1457 37.06 3.80197
1 50.442 37.8043 3.70096
1 51.7587 37.0722 3.58469
1 53.0247 37.8164 3.36519
1 54.3206 37.0746 3.45238
1 55.5819 37.8297 3.40776
1 56.8362 37.0901 3.41057
1 58.1087 37.8509 3.36622
1 59.3504 37.1033 -0.564042
1 60.5974 37.8373 -0.380554
1 61.8556 37.1443 -0.384594
1 63.1042 37.8477 3.92983
1 64.3625 37.1306 0.0286869
1 65.6102 37.8782 4.4118
1 66.8564 37.1888 0.392653
1 68.1183 37.9182 0.265022
1 69.416 37.1645 0.26575
1 70.6569 37.8977 0.204199
1 22.6845 39.3439 -0.123701
1 23.9612 40.052 -0.219108
1 25.2027 39.3207 -0.274572
1 26.4589 40.052 3.7776
1 27.7329 39.3179 3.75688
1 28.9817 40.0458 3.69967
1 30.2535 39.3264 3.78157
1 31.5432 40.0769 3.70645
1 32.8036 39.3262 3.80538
1 34.0576 40.0473 3.86585
1 35.3338 39.2837 3.82958
1 36.5724 40.0314 3.78171
1 37.8304 39.2815 3.63121
1 39.0729 40.0136 3.55057
1 40.3201 39.3128 3.52215
1 41.576 40.0244 3.59653
1 42.8475 39.304 3.8198
1 44.1193 40.0243 3.65833
1 45.3455 39.2921 3.77733
1 46.6421 39.9999 3.80841
1 47.8855 39.2767 4.05091
1 49.1717 40.0077 3.89952
1 50.4166 39.2752 3.7249
1 51.6933 40.0483 3.6203
1 52.9804 39.3057 3.48355
1 54.2022 40.0483 3.59031
1 55.5823 39.3256 3.52701
1 56.8144 40.0671 3.45742
1 58.1094 39.3613 3.48444
1 59.3188 40.0265 3.90608
1 60.5988 39.2995 3.76968
1 61.8432 40.0018 4.05516
1 63.1004 39.2644 4.00733
1 64.3532 40.0093 4.04655
1 65.6032 39.3171 0.127183
1 66.8197 40.0569 4.06086
1 68.1111 39.3455 0.0623487
1 69.41 40.0409 0.00158738
1 70.6547 39.3063 0.0455995
1 71.9036 40.0667 -0.0568431
1 23.9449 41.5283 -0.398915
1 25.1997 42.2297 3.75973
1 26.4738 41.4736 3.7691
1 27.7256 42.201 3.79306
1 28.9759 41.4921 3.63914
1 30.2492 42.2176 3.54391
1 31.4984 41.5101 3.57617
1 32.7878 42.2295 3.60515
1 34.0566 41.4967 3.81327
1 35.2895 42.2069 3.77836
1 36.5465 41.4833 3.78009
1 37.7841 42.1921 3.53096
1 39.045 41.4748 3.49392
1 40.3451 42.2385 3.42209
1 41.5985 41.5121 3.4709
1 42.8515 42.2233 3.5664
1 44.1224 41.4863 3.62971
1 45.3889 42.1946 3.61276
1 46.6291 41.4592 3.65365
1 47.9011 42.2183 3.62462
1 49.1766 41.4678 3.7625
1 50.4487 42.2147 3.72783
1 51.6783 41.4809 3.60148
1 52.9386 42.206 3.76121
1 54.1782 41.4623 3.66222
1 55.5183 42.2325 3.61987
1 56.7809 41.5059 3.58259
1 58.0373 42.215 3.82083
1 59.2886 41.4917 3.98894
1 60.5146 42.219 4.19088
1 61.8082 41.487 4.19724
1 63.0481 42.25 4.12113
1 64.3127 41.4988 4.08047
1 65.5505 42.2351 3.95927
1 66.8097 41.5339 3.89832
1 68.0805 42.2467 3.87857
1 69.382 41.4959 -0.0677143
1 70.646 42.239 4.04106
1 71.8924 41.5288 -0.0976136
1 73.1315 42.2731 -0.223026
800
Atoms. Timestep: 100000
1 25.2168 43.7187 3.78203
1 1.22163 0.703979 3.7224
1 27.7299 43.7084 3.60617
1 3.71491 0.696934 3.53764
1 4.9755 -0.0410162 3.45602
1 6.22669 0.667289 3.38011
1 7.484 -0.0663416 3.30422
1 8.74331 0.6858 3.33362
1 10.0043 -0.0360645 3.30247
1 11.2505 0.679906 3.31443
1 37.7652 43.7 3.54862
1 13.7833 0.69459 3.49228
1 40.3351 43.6909 3.32441
1 16.3402 0.717634 3.15552
1 42.863 43.7391 3.03194
1 18.8606 0.715233 3.24818
1 20.1589 -0.0425322 3.20135
1 21.4251 0.666499 3.10742
1 47.9756 43.6885 3.06907
1 24.0041 0.679803 3.11189
1 25.2649 -0.05074 3.18042
1 26.5235 0.683706 3.30085
1 27.7993 -0.0738091 3.35175
1 29.0509 0.686895 3.33629
1 55.5725 43.7133 3.46939
1 31.5787 0.721035 3.57302
1 58.0956 43.7084 3.70666
1 34.083 0.682798 3.85914
1 60.5918 43.7297 3.98947
1 36.6228 0.712901 3.98419
1 63.1149 43.7115 4.0357
1 39.1267 0.686857 4.01678
1 40.3708 -0.0564801 3.8208
1 41.6306 0.683425 3.83076
1 42.8839 -0.0501734 3.97043
1 44.1406 0.674502 3.93492
1 45.3999 -0.0497107 4.01851
1 46.7125 0.701841 3.94419
1 47.9399 -0.0115853 3.81079
1 49.2301 0.70425 3.81352
1 1.1909 2.16452 3.72895
1 2.44759 2.8905 3.53852
1 3.72701 2.15041 3.39583
1 4.99273 2.87135 3.30369
1 6.24996 2.15243 3.33313
1 7.48593 2.87163 3.41098
1 8.7285 2.12097 3.37559
1 10.0409 2.86472 3.27028
1 11.2821 2.13012 3.25805
1 12.5502 2.85275 3.20209
1 13.8113 2.13346 3.37833
1 15.0437 2.85002 3.42538
1 16.3006 2.16392 3.21283
1 17.592 2.91181 3.1954
1 18.8618 2.15304 3.13823
1 20.148 2.86975 3.09211
1 21.424 2.13514 3.11893
1 22.7038 2.83741 3.19135
1 23.986 2.1124 3.1431
1 25.2464 2.84125 3.28776
1 26.4938 2.10219 3.25922
1 27.7778 2.88536 3.3001
1 29.0476 2.15008 3.41799
1 30.3152 2.88867 3.65893
1 31.5968 2.18862 3.58168
1 32.8522 2.90528 3.67982
1 34.0861 2.15418 3.90904
1 35.3566 2.89477 4.04716
1 36.6081 2.18718 4.01763
1 37.8713 2.90153 4.05761
1 39.1382 2.16262 4.10356
1 40.379 2.88456 4.14127
1 41.6617 2.14801 3.99644
1 42.9049 2.88266 3.86565
1 44.1724 2.11052 3.87008
1 45.4124 2.84817 3.8723
1 46.72 2.15375 3.96026
1 47.9544 2.89834 3.84339
1 49.2335 2.19621 3.77534
1 50.4892 2.90544 3.79414
1 52.9858 4.34119 3.53624
1 3.72382 5.1009 3.41492
1 4.98528 4.37639 3.42411
1 6.23397 5.07122 3.59399
1 7.49804 4.30813 3.4378
1 8.77993 5.03277 3.52171
1 10.0321 4.31936 3.31707
1 11.2961 5.04047 3.2882
1 12.5682 4.3035 3.21767
1 13.8239 5.04717 3.33502
1 15.0549 4.31537 3.49444
1 16.3323 5.05884 3.48003
1 17.6131 4.34729 3.26922
1 18.8851 5.07418 3.28355
1 20.1376 4.35981 3.27807
1 21.3891 5.05308 3.53963
1 22.6889 4.31816 3.49021
1 23.9913 5.05793 3.55694
1 25.2679 4.3146 3.45764
1 26.4999 5.0456 3.40818
1 27.7519 4.3318 3.3036
1 29.0255 5.09012 -0.720981
1 30.3093 4.36197 3.62717
1 31.5598 5.0783 3.76889
1 32.8305 4.39127 3.65225
1 34.1243 5.10079 3.74688
1 35.3608 4.3628 3.87539
1 36.6169 5.08092 4.03321
1 37.8493 4.35464 4.1881
1 39.1463 5.07179 4.2264
1 40.3847 4.32223 4.19722
1 41.6273 5.0407 4.07779
1 42.8915 4.32486 3.89501
1 44.1458 5.01973 3.98263
1 45.3906 4.2996 3.97872
1 46.678 5.01516 4.07348
1 47.9178 4.34304 3.86495
1 49.1605 5.07367 3.85666
1 50.4456 4.32583 3.79009
1 51.7281 5.05082 3.78167
1 54.2709 6.54566 3.71176
1 5.01848 7.24989 3.89923
1 6.27983 6.52306 3.79261
1 7.52625 7.25702 3.7812
1 8.77822 6.48893 3.68139
1 10.0231 7.21191 3.60068
1 11.302 6.5 3.45266
1 12.5487 7.23181 3.57692
1 13.813 6.49309 3.67091
1 15.0841 7.20449 3.70849
1 16.3388 6.47601 3.63179
1 17.6248 7.22709 3.60075
1 18.8981 6.50915 3.4427
1 20.1372 7.23474 3.4813
1 21.4273 6.51615 3.624
1 22.7014 7.26206 3.67861
1 23.9704 6.54061 3.6146
1 25.2517 7.28328 3.60715
1 26.4951 6.51745 3.48542
1 27.7545 7.25471 3.54602
1 29.0252 6.53195 -0.59632
1 30.2913 7.25502 -0.330371
1 31.565 6.52676 -0.260737
1 32.8192 7.23698 -0.307015
1 34.1149 6.53759 3.84782
1 35.3482 7.26222 4.06447
1 36.6388 6.52106 4.09687
1 37.8602 7.19867 4.31548
1 39.1212 6.50513 4.27392
1 40.3919 7.22901 4.26805
1 41.6378 6.50626 4.10835
1 42.878 7.22418 0.0802948
1 44.1319 6.48147 0.0158232
1 45.3967 7.18266 0.162429
1 46.6874 6.46491 0.0807318
1 47.9518 7.21663 0.031011
1 49.215 6.49755 4.0827
1 50.4981 7.23291 -0.00520985
1 51.7721 6.5115 3.95819
1 53.018 7.25988 3.97041
1 4.99481 8.71595 3.95795
1 6.23465 9.44875 3.81525
1 7.5141 8.70195 3.81288
1 8.76891 9.40056 3.72936
1 9.99657 8.66488 3.54483
1 11.2899 9.40404 3.56331
1 12.5678 8.67614 3.50816
1 13.8429 9.43234 3.63662
1 15.0966 8.68105 3.68495
1 16.3788 9.44615 3.72871
1 17.6121 8.74141 3.68087
1 18.8573 9.47941 3.58132
1 20.1381 8.7039 3.52178
1 21.438 9.45423 3.61613
1 22.7044 8.71128 3.70511
1 23.9686 9.43317 3.85509
1 25.2381 8.7283 3.72627
1 26.4951 9.44813 3.71884
1 27.7429 8.72974 3.6958
1 28.9829 9.43949 3.78239
1 30.2626 8.71889 3.83781
1 31.5367 9.45051 -0.200598
1 32.8084 8.70622 -0.148896
1 34.0479 9.48501 0.119428
1 35.344 8.74145 0.139012
1 36.6318 9.42386 0.212193
1 37.8751 8.67762 4.48299
1 39.1197 9.40348 0.589049
1 40.3742 8.66309 4.61377
1 41.63 9.40667 0.533111
1 42.8959 8.7219 0.350884
1 44.1511 9.41365 0.378338
1 45.4093 8.67014 0.210654
1 46.6523 9.41551 0.17211
1 47.9209 8.71051 -0.0898969
1 49.2147 9.44526 -0.0273855
1 50.4874 8.6975 0.0131236
1 51.7254 9.43579 4.10152
1 52.9955 8.67621 4.05179
1 54.2153 9.42138 4.02789
1 56.7466 10.8956 3.90916
1 7.5157 11.6209 3.87988
1 8.76376 10.8957 3.69922
1 10.0724 11.635 3.70862
1 11.3301 10.9001 3.71697
1 12.6221 11.6485 3.74293
1 13.875 10.9319 3.72202
1 15.1299 11.6432 -0.299939
1 16.3839 10.9425 -0.448089
1 17.6184 11.6646 3.5898
1 18.9006 10.9165 3.58796
1 20.1908 11.6618 3.61927
1 21.458 10.9293 3.67394
1 22.6802 11.6347 3.98394
1 23.9778 10.8921 4.03473
1 25.2135 11.6287 4.00404
1 26.4847 10.8921 3.87189
1 27.7713 11.6202 3.95128
1 29.017 10.9051 3.90225
1 30.2999 11.6258 -0.124385
1 31.5097 10.9121 0.0318958
1 32.8199 11.6593 0.123087
1 34.0768 10.9082 0.196177
1 35.3321 11.6335 0.327838
1 36.5826 10.8886 0.471612
1 37.8132 11.6091 0.684415
1 39.101 10.8748 0.730997
1 40.3853 11.6468 0.77414
1 41.6401 10.8777 0.719331
1 42.938 11.546 0.948506
1 44.1863 10.8362 0.754723
1 45.4642 11.5682 0.665056
1 46.7073 10.8613 0.392286
1 47.9669 11.5724 0.297777
1 49.1933 10.8731 0.154553
1 50.4786 11.6125 0.227255
1 51.7186 10.8591 0.0471635
1 52.9441 11.6156 -0.0426783
1 54.216 10.8969 4.08558
1 55.4784 11.6271 4.06976
1 58.0486 13.0814 4.08825
1 8.80663 13.7908 4.07371
1 10.0807 13.078 3.84075
1 11.3572 13.7896 3.87288
1 12.6072 13.0817 3.75008
1 13.8773 13.8506 -0.36349
1 15.1381 13.1154 -0.302273
1 16.3611 13.8212 -0.360719
1 17.6325 13.0956 3.62523
1 18.891 13.8508 -0.317255
1 20.1863 13.1306 3.75456
1 21.4184 13.8455 -0.208388
1 22.6723 13.0939 -0.140635
1 23.9591 13.8443 4.1289
1 25.2361 13.1238 3.98831
1 26.5308 13.8688 4.01559
1 27.7848 13.103 4.02191
1 29.0342 13.8298 4.05372
1 30.306 13.1155 0.00957485
1 31.5346 13.8183 0.250315
1 32.8271 13.1288 0.232838
1 34.081 13.8476 0.280211
1 35.3434 13.1027 0.37438
1 36.5803 13.8446 0.488101
1 37.8184 13.1041 0.720364
1 39.128 13.8171 0.813022
1 40.3646 13.0942 0.856258
1 41.649 13.7988 0.874267
1 42.9267 13.0361 0.898518
1 44.2263 13.7638 0.834776
1 45.4329 13.0416 0.698624
1 46.693 13.7735 0.675713
1 47.9472 13.0431 0.520665
1 49.2075 13.786 0.497251
1 50.4671 13.0735 0.395185
1 51.6954 13.8302 0.287802
1 52.944 13.0972 0.158832
1 54.2134 13.8323 0.246333
1 55.4858 13.0994 0.0361961
1 56.739 13.8232 0.13646
1 59.3169 15.225 0.220779
1 10.0475 15.9718 0.192998
1 11.3405 15.2426 0.0528497
1 12.5759 15.9708 0.102841
1 13.8499 15.3004 -0.100391
1 15.1263 16.0105 0.0346354
1 16.3841 15.258 -0.133766
1 17.6522 16.0222 0.0133689
1 18.9233 15.298 -0.126067
1 20.1663 16.0363 -0.157721
1 21.4356 15.335 -0.173124