LAMMPS (8 Feb 2019)
OMP_NUM_THREADS environment is not set. Defaulting to 1 thread. (../comm.cpp:87)
  using 1 OpenMP thread(s) per MPI task
# 3D copper block simulation
boundary        p p p
units           metal
atom_style      atomic

# geometry
read_data	    data.pos
  triclinic box = (0 0 0) to (50.44 43.6823 4.11843) with tilt (25.22 0 0)
  1 by 1 by 1 MPI processor grid
  reading atoms ...
  800 atoms

mass		    *   12.0107

# EAM potential
pair_style      tersoff
pair_coeff      * * SiC.tersoff C
Reading potential file SiC.tersoff with DATE: 2011-04-26
neighbor        2. nsq
neigh_modify    every 1 delay 0 check yes

#Langevin random seed
variable        dt equal 2e-6
variable        r  equal 57085
variable        T  equal 300
variable        dT equal "v_dt * 100"

timestep        ${dt}
timestep        2e-06


min_style       cg
minimize        1e-6 1e-6 1000000 1000000
Neighbor list info ...
  update every 1 steps, delay 0 steps, check yes
  max neighbors/atom: 2000, page size: 100000
  master list distance cutoff = 4.1
  ghost atom cutoff = 4.1
  1 neighbor lists, perpetual/occasional/extra = 1 0 0
  (1) pair tersoff, perpetual
      attributes: full, newton on
      pair build: full/nsq
      stencil: none
      bin: none
Per MPI rank memory allocation (min/avg/max) = 3.959 | 3.959 | 3.959 Mbytes
Step Temp E_pair E_mol TotEng Press 
       0            0    -5914.079            0    -5914.079    17918.198 
       1            0    -5914.079            0    -5914.079    17918.198 
Loop time of 0.00897598 on 1 procs for 1 steps with 800 atoms

0.0% CPU use with 1 MPI tasks x 1 OpenMP threads

Minimization stats:
  Stopping criterion = energy tolerance
  Energy initial, next-to-last, final = 
        -5914.07896039     -5914.07896039     -5914.07896039
  Force two-norm initial, final = 4.02845e-11 1.53761e-11
  Force max component initial, final = 5.28955e-12 1.61959e-12
  Final line search alpha, max atom move = 1 1.61959e-12
  Iterations, force evaluations = 1 2

MPI task timing breakdown:
Section |  min time  |  avg time  |  max time  |%varavg| %total
---------------------------------------------------------------
Pair    | 0.0050111  | 0.0050111  | 0.0050111  |   0.0 | 55.83
Neigh   | 0          | 0          | 0          |   0.0 |  0.00
Comm    | 0          | 0          | 0          |   0.0 |  0.00
Output  | 0          | 0          | 0          |   0.0 |  0.00
Modify  | 0          | 0          | 0          |   0.0 |  0.00
Other   |            | 0.003965   |            |       | 44.17

Nlocal:    800 ave 800 max 800 min
Histogram: 1 0 0 0 0 0 0 0 0 0
Nghost:    1410 ave 1410 max 1410 min
Histogram: 1 0 0 0 0 0 0 0 0 0
Neighs:    0 ave 0 max 0 min
Histogram: 1 0 0 0 0 0 0 0 0 0
FullNghs:  14400 ave 14400 max 14400 min
Histogram: 1 0 0 0 0 0 0 0 0 0

Total # of neighbors = 14400
Ave neighs/atom = 18
Neighbor list builds = 0
Dangerous builds = 0

# initialize
velocity        all create $T 28459 rot yes dist gaussian mom yes
velocity        all create 300 28459 rot yes dist gaussian mom yes


# reset_timestep  0


# fixes
# fix             1 all langevin $T $T ${dT} 73504 zero yes
fix             1 all nve
fix             2 all npt temp $T $T 0.01 iso 0 0 0.1
fix             2 all npt temp 300 $T 0.01 iso 0 0 0.1
fix             2 all npt temp 300 300 0.01 iso 0 0 0.1
fix             3 all nve
fix             4 all phonon 10 50000 1000000 map.in Graphene nasr 50
fix             5 all npt temp $T $T $(100.0*dt) iso 0 0 0.1
fix             5 all npt temp 300 $T $(100.0*dt) iso 0 0 0.1
fix             5 all npt temp 300 300 $(100.0*dt) iso 0 0 0.1
fix             5 all npt temp 300 300 0.00019999999999999998248 iso 0 0 0.1

# output
#                    1    2    3  4  5     6   7
thermo_style    custom step temp pe ke press pxx pyy
thermo          100

restart         1000000 restart.one restart.two

dump            1 all xyz 50000 dump.graphene.xyz

# execution
run 	        6000000
WARNING: One or more atoms are time integrated more than once (../modify.cpp:283)
Per MPI rank memory allocation (min/avg/max) = 3.743 | 3.743 | 3.743 Mbytes
Step Temp PotEng KinEng Press Pxx Pyy 
       1          300    -5914.079    30.983657    21565.231    30615.963    30564.167 
     100    288.81283   -5912.6837    29.828259    21603.886    31233.094    30080.624 
     200    277.23604   -5908.8199    28.632621    21902.853     32074.79    29942.284 
     300    251.04212   -5903.4975    25.927343    22042.327    32550.658    29746.354 
     400    236.21412    -5898.096    24.395925     21998.27    32461.714    29388.487 
     500     239.4712   -5893.8441    24.732311    21538.819    31481.428    28548.204 
     600    264.69533   -5891.4626    27.337431    20512.107    29458.253    27032.395 
     700    302.42118   -5890.8318    31.233713    18809.504        26403    24782.905 
     800    323.05397   -5890.9882    33.364645    16312.309    22414.685    21790.396 
     900    300.00467   -5890.7513    30.984139    13059.028    17719.634      18096.8 
    1000    274.29719   -5889.5753      28.3291     9786.778    13011.987    14186.105 
    1100    279.62558   -5887.4773     28.87941    6950.9561    8709.5356    10418.388 
    1200    289.64996   -5884.7176    29.914717    4211.6476    4565.3668    6563.1395 
    1300    294.69786   -5881.9379    30.436058    1388.4336     448.2605     2461.275 
    1400    301.73416   -5879.8993    31.162759   -1523.5975   -3646.6168   -1910.4215 
    1500    310.59371    -5879.094    32.077764   -4564.2485   -7755.7872   -6560.4444 
    1600    310.62422   -5879.5086    32.080914   -7795.2157   -11943.406   -11463.741 
    1700    300.72119   -5880.6601     31.05814   -11074.936   -16115.167   -16411.864 
    1800    296.39693   -5881.8954    30.611535   -14057.269   -19964.281   -21037.546 
    1900    295.77035   -5882.6442    30.546824   -16639.039     -23369.4   -25182.145 
    2000      295.283   -5882.5891     30.49649   -18790.718   -26302.155   -28751.997 
    2100    297.13825   -5881.7622    30.688098   -20485.185   -28781.192     -31653.1 
    2200    300.68598   -5880.4915    31.054504   -21787.525   -30930.698   -33884.547 
    2300     301.6499   -5879.2818    31.154057   -22836.052   -32905.718   -35535.987 
    2400    304.17132   -5878.6228    31.414466   -23664.062    -34709.08   -36647.112 
    2500    308.93124   -5878.7596    31.906065   -24301.677   -36285.002   -37290.436 
    2600    298.00138   -5879.6017    30.777241   -24940.447   -37662.038   -37679.438 
    2700    297.61583   -5880.8533    30.737422    -25218.01   -38452.367   -37621.426 
    2800    304.07885   -5882.1134    31.404916   -25122.831   -38592.391    -37151.59 
    2900    296.47095   -5882.9779     30.61918   -24850.602    -38215.21   -36443.097 
    3000    289.43231   -5883.3128    29.892237    -24225.17   -37201.213    -35356.15 
    3100    295.58591   -5883.2117    30.527775    -23140.22   -35514.207   -33795.173 
    3200    296.96684   -5882.8382    30.670395   -21855.662   -33406.878   -31977.297 
    3300    297.78765   -5882.4378    30.755167   -20362.579   -30894.342   -29891.749 
    3400    304.25179   -5882.2038    31.422777   -18610.595   -27942.639   -27489.181 
    3500    307.98718   -5882.1647    31.808564   -16685.321   -24633.689   -24816.106 
    3600    294.03771   -5882.2192    30.367878   -14725.164   -21124.243   -21948.046 
    3700    283.24459     -5882.26    29.253177   -12457.584   -17196.173   -18637.473 
    3800    298.33294   -5882.1196    30.811485   -9616.0002   -12610.955   -14665.573 
    3900    300.36252   -5881.5316    31.021097   -6664.7612   -7879.4225   -10421.332 
    4000    293.48057   -5880.4446    30.310338   -3599.1689   -3087.6633   -5887.0016 
    4100    295.58926   -5879.0343    30.528121   -304.08327    1778.7216   -956.75869 
    4200    295.22943   -5877.5624    30.490957    2967.4839    6406.4391    4118.6634 
    4300     293.7802   -5876.3936    30.341283     6110.906    10676.774    9183.8941 
    4400    302.06986   -5875.8274    31.197429     9159.384    14638.648    14188.476 
    4500    308.85525   -5875.9725    31.898217    11929.135    18187.782    18882.054 
    4600    303.36219   -5876.7544      31.3309    14289.856    21300.714    23048.397 
    4700    301.40901   -5877.9789    31.129178    16461.084    24272.201    26781.424 
    4800    309.76178   -5879.3489    31.991842    18565.044    27263.709    30142.867 
    4900    303.58234   -5880.4393    31.353636    20365.877    30059.791    32918.737 
    5000    297.58416   -5880.9686    30.734152    22079.198    32853.451    35326.921 
    5100    294.55036     -5880.83    30.420824    23737.734    35635.838    37424.909 
    5200    298.71218   -5880.0642    30.850652    25362.449     38368.25    39260.225 
    5300    308.67554    -5878.831    31.879657    26881.697    40901.904    40798.348 
    5400     297.1944   -5877.4988    30.693898    27855.474    42698.217    41703.906 
    5500     293.6569   -5876.6381    30.328549    28493.921     43834.36    42203.071 
    5600    305.31978   -5876.6556    31.533078    28776.516    44201.963     42290.18 
    5700    313.30779   -5877.6318     32.35807    28432.324    43514.689    41760.441 
    5800    316.71576   -5879.3317    32.710041    27486.671    41806.797    40631.794 
    5900    313.17812   -5881.3226    32.344678    26010.303    39213.311    38935.624 
    6000    308.05394   -5883.1649    31.815459     24190.63    36013.813     36796.57 
    6100    302.00998   -5884.5639    31.191245    22142.318    32426.419    34287.969 
    6200    296.50058   -5885.4095    30.622241    19956.448    28637.993    31465.894 
    6300    294.49028   -5885.7604     30.41462    17705.206    24799.573    28366.756 
    6400    300.95088   -5885.7673    31.081862    15458.589    21038.521    25022.574 
    6500    314.54629   -5885.5763    32.485981    13200.763    17385.755    21396.549 
    6600    304.36895    -5885.318    31.434877    10543.107    13537.532    17153.926 
    6700    284.24867   -5885.2147    29.356878    7610.2608    9577.5915    12434.546 
    6800    294.25975   -5885.3986    30.390811    4876.3263    5857.0247    7668.0078 
    6900    305.89521   -5885.7252    31.592508    2042.4939    2095.7041    2695.7475 
    7000    304.24724   -5885.9567    31.422307   -1001.4698     -1857.95   -2434.9064 
    7100     291.2295   -5885.9743     30.07785   -4171.7488   -5994.5875   -7531.5765 
    7200    284.63309    -5885.833     29.39658   -7216.4025   -10123.206   -12326.414 
    7300    307.24245   -5885.6163    31.731649   -9830.2269   -13956.728   -16558.118 
    7400    310.31091    -5885.295    32.048556   -12544.273   -17919.483   -20587.548 
    7500    294.21891   -5884.9248    30.386593   -15305.708   -21960.801   -24329.402 
    7600    289.37791   -5884.6126    29.886619   -17724.647   -25730.959   -27463.643 
    7700    306.01422   -5884.3184    31.604798   -19642.472   -29048.345   -29862.735 
    7800    308.48914   -5883.8458    31.860405   -21424.412   -32139.835   -31879.143 
    7900    297.21586   -5883.1132    30.696114   -23028.978    -34823.56   -33617.402 
    8000    292.00941   -5882.2071    30.158397   -24228.678    -36797.78   -34995.428 
    8100    298.78499    -5881.241    30.858172   -24974.242   -37988.343   -36014.743 
    8200    299.24927   -5880.3149    30.906123   -25500.669   -38619.764   -36877.912 
    8300    296.20847   -5879.5825    30.592071   -25795.046   -38721.809   -37544.064 
    8400    300.80737   -5879.1688    31.067041   -25737.901   -38232.284   -37867.068 
    8500    309.31564   -5879.0855    31.945766   -25363.013   -37212.901   -37830.552 
    8600    306.29483   -5879.2514     31.63378   -24825.113    -35826.28   -37523.004 
    8700    288.81398   -5879.5992    29.828378   -24139.599   -34119.633   -36914.575 
    8800    295.64401   -5880.0949    30.533775   -22845.529   -31693.466   -35589.413 
    8900     311.2427    -5880.561     32.14479   -21111.473   -28759.005   -33638.926 
    9000    304.26812   -5880.7813    31.424463   -19301.807   -25749.754   -31290.787 
    9100    284.07606   -5880.7795     29.33905   -17358.663   -22708.933   -28439.395 
    9200    292.46082    -5880.742    30.205019   -14862.953   -19307.379    -24746.54 
    9300    303.67395    -5880.748    31.363098   -12183.089   -15872.582   -20588.966 
    9400    305.36991   -5880.8689    31.538255   -9528.6247   -12542.385   -16230.297 
    9500    296.39239   -5881.2104    30.611067   -6975.2816   -9317.6356   -11836.699 
    9600    285.26637   -5881.8714    29.461985   -4470.9143   -6078.0037   -7485.0479 
    9700    300.26294   -5882.8659    31.010813   -1699.3747   -2478.1774   -3035.2353 
    9800    331.95127   -5883.9835    34.283547    1248.2899    1466.7293    1378.5773 
    9900     316.0787    -5884.835    32.644247    3652.4717    5180.0264    5138.7725 
   10000    302.19442   -5885.3295    31.210294    6105.8817    9178.1582    8704.3317 
   10100    292.56868   -5885.5136    30.216158    8596.8927    13379.345    12089.061 
   10200    294.83947   -5885.4462    30.450683    11172.494    17734.851    15371.709 
   10300     306.8906   -5885.1408     31.69531     13768.45    22105.259    18533.276 
   10400    307.15756   -5884.5956    31.722881    16084.906    26150.833    21349.509 
   10500    286.72717   -5883.9417    29.612854    17948.079    29627.129    23707.968 
   10600    278.38251   -5883.4444    28.751027    19669.118    32720.967    25877.532 
   10700    300.38836   -5883.2176    31.023766    21417.768     35539.21    27987.319 
   10800    304.83845   -5883.1766    31.483366    22600.872    37492.194    29599.284 
   10900    300.60753   -5883.2834    31.046402    23319.533    38615.969    30827.421 
   11000    293.35655   -5883.5461    30.297529     23637.84    38948.605    31726.925 
   11100    295.04494    -5883.963    30.471904    23708.902    38650.107    32405.527 
   11200    310.54077    -5884.435    32.072296    23626.785    37873.504    32906.775 
   11300    314.18204   -5884.7416    32.448362    23145.901    36513.334    32935.391 
   11400    292.67292   -5884.7487    30.226925    22165.136    34627.459     32282.43 
   11500    290.95339   -5884.5263    30.049333     21246.21    32845.856    31375.995 
   11600    300.42848   -5884.0874     31.02791    20300.401    31165.832     30072.95 
   11700    301.22636   -5883.4255    31.110314    19100.528    29428.534    28128.318 
   11800    295.80054   -5882.6527    30.549941    17659.287    27637.547     25561.39 
   11900    294.84658   -5881.9526    30.451417    16069.893    25796.984    22521.612 
   12000     296.5959   -5881.4791    30.632085    14279.843    23740.659    19071.709 
   12100    300.07023   -5881.3288     30.99091    12263.738    21330.418    15311.894 
   12200    304.65647   -5881.5133    31.464572    10029.325    18499.212    11353.206 
   12300    300.02276   -5881.9568    30.986008    7497.3092    15151.712    7210.7496 
   12400    286.14227    -5882.573    29.552446    4728.7696    11337.013    3004.6566 
   12500    298.51608   -5883.2977    30.830399    2216.2344    7512.7828    -811.0229 
   12600    311.74885    -5883.932    32.197064   -259.96671    3531.6741   -4383.6432 
   12700    295.64188   -5884.2921    30.533555   -2982.3019   -824.05944   -7916.6733 
   12800    287.47426   -5884.4526    29.690013   -5478.4948   -5071.9832   -11028.675 
   12900      300.714     -5884.53    31.057398   -7582.2991   -9019.5259   -13603.959 
   13000    309.08482   -5884.5097    31.921926   -9587.8822   -12840.609   -15958.885 
   13100    299.12915   -5884.4123    30.893717    -11647.89    -16541.37    -18334.13 
   13200     286.0228   -5884.3677    29.540107   -13594.594   -19861.276   -20696.024 
   13300     300.6056   -5884.4857    31.046202    -15065.95   -22413.608   -22804.892 
   13400    320.20025   -5884.6728    33.069915   -16301.595    -24371.92   -24870.069 
   13500      307.358   -5884.7778    31.743583   -17708.531   -26092.094   -27194.663 
   13600    295.44949   -5884.8386    30.513686   -18881.376   -27253.289   -29387.723 
   13700    295.11807   -5884.9183    30.479456   -19693.891   -27825.212   -31256.184 
   13800     306.2672   -5885.0068    31.630926   -20137.361   -27892.768   -32687.325 
   13900     316.0101   -5885.0196    32.637162   -20344.497   -27663.705   -33681.884 
   14000    294.79373   -5884.9023    30.445959   -20654.669   -27529.237   -34421.074 
   14100    287.38295   -5884.7683    29.680583   -20553.875   -27102.026   -34423.841 
   14200    300.24618   -5884.6512    31.009082   -19975.505   -26336.748   -33632.905 
   14300      305.343   -5884.4493    31.535475   -19239.292   -25508.452   -32318.075 
   14400     298.8049   -5884.1199    30.860228   -18387.495   -24638.692    -30534.47 
   14500    293.87177   -5883.7249    30.350741   -17281.722   -23585.276   -28207.656 
   14600    312.80757   -5883.3089    32.306408   -15677.641   -22104.733   -25187.702 
   14700    310.28264   -5882.8007    32.045636   -14122.461   -20594.431   -22025.478 
   14800    290.52319   -5882.2705    30.004902   -12600.159    -18910.23   -18873.396 
   14900    289.95592   -5881.8713    29.946316   -10730.611   -16651.322   -15544.433 
   15000     304.8348   -5881.6127    31.482989   -8590.5984   -13855.308   -12170.102 
   15100    303.09083   -5881.4171    31.302875   -6579.0168    -10853.74   -9115.7526 
   15200    297.42499   -5881.2802    30.717713   -4568.9741   -7574.3587    -6275.254 
   15300    296.50263   -5881.2153    30.622452   -2484.8784   -4023.8041   -3550.8492 
   15400    309.01287   -5881.1898    31.914496   -241.40333   -212.11339   -814.99264 
   15500    314.92742   -5881.1037    32.525343    1914.2621    3574.8503    1781.0093 
   15600    293.48416   -5880.9633    30.310709    3710.9018    7005.4217    4079.7938 
   15700    291.47681   -5880.9679    30.103391    5655.6248    10429.585    6551.3946 
   15800    303.43712   -5881.2099    31.338639    7640.6104    13718.519     9102.686 
   15900    308.43651   -5881.6314     31.85497    9404.2699    16590.222    11544.671 
   16000    297.32401   -5882.1465    30.707284    10836.058    18887.191    13819.029 
   16100    294.06241   -5882.7335    30.370429    12214.729    20832.979    16171.912 
   16200    302.94074   -5883.3473    31.287373    13582.931    22465.231    18626.476 
   16300    304.90463   -5883.8768    31.490202    14716.318    23615.731    20935.351 
   16400    294.98029   -5884.2868    30.465226    15550.538    24283.177    22967.775 
   16500    292.52561   -5884.6428     30.21171    16300.044    24711.987    24862.818 
   16600    307.30649   -5884.9644    31.738263    17073.628    25071.979    26648.093 
   16700     325.0309   -5885.1364    33.568819    17715.947    25341.267     28062.29 
   16800    301.84645    -5885.065    31.174356    17705.173    25182.948    28466.285 
   16900    294.77367   -5884.9138    30.443887    17698.372    25285.211    28382.566 
   17000    299.12823    -5884.786    30.893621    17613.347    25551.739    27731.675 
   17100     307.8029   -5884.6651    31.789532      17363.2     25812.55    26519.083 
   17200     304.8026   -5884.4872    31.479664    16763.636    25748.129    24737.187 
   17300    284.20061   -5884.2735    29.351914    15739.912    25116.755    22502.277 
   17400     287.8211   -5884.1305    29.725834    14791.109    24224.746    20402.786 
   17500    303.49235   -5884.0042    31.344342    13796.675    22934.517    18385.841 
   17600    301.33747   -5883.7704     31.12179    12437.524    20968.272    16216.528 
   17700    295.63818   -5883.4296    30.533173    10911.198    18507.653    14098.487 
   17800    299.33634    -5883.032    30.915115    9388.9898    15744.287    12163.756 
   17900    312.73244   -5882.5706    32.298649    7897.8091    12765.792    10402.386 
   18000     302.9738   -5882.0314    31.290787    6060.0865    9354.9774     8427.224 
   18100    284.58336   -5881.5652    29.391443    4038.5057    5792.6459      6236.64 
   18200    294.46573   -5881.3437    30.412083    2262.5901    2543.8447    4073.6268 
   18300    313.15434   -5881.3091    32.342222    524.73112   -519.08423    1750.9934 
   18400    302.06764   -5881.3178    31.197201   -1588.7434   -3698.2073   -1082.3223 
   18500    290.90781   -5881.3796    30.044626   -3689.1488   -6655.3011   -4095.5173 
   18600    297.73862   -5881.5156    30.750104   -5530.2094    -9169.041   -7061.3543 
   18700    314.41217   -5881.6446     32.47213   -7161.2018     -11239.6   -10012.352 
   18800    305.74786   -5881.6579    31.577289   -8949.0165   -13165.137   -13235.699 
   18900    286.18481   -5881.6436     29.55684   -10704.651   -14873.666   -16450.863 
   19000    297.94052   -5881.7431    30.770956   -11928.608   -16038.679   -19101.401 
   19100     309.9646   -5881.8778    32.012789   -12965.278   -17065.631   -21356.874 
   19200     301.9875   -5881.9301    31.188924   -14028.325   -18243.152   -23279.709 
   19300    287.28282   -5881.9256    29.670241   -14963.786   -19471.378   -24698.348 
   19400    293.96899   -5881.9512    30.360781   -15452.477   -20442.748   -25372.967 
   19500    301.10141   -5881.9775    31.097409   -15741.354   -21340.453   -25547.432 
   19600    300.92008   -5881.9613    31.078682   -15919.629   -22205.869   -25325.932 
   19700    298.53643   -5881.9292      30.8325   -15936.045    -22950.35    -24707.81 
   19800    297.95407   -5881.9509    30.772355   -15761.537   -23486.897   -23737.218 
   19900    303.43191   -5882.1006      31.3381   -15365.042   -23717.322   -22469.738 
   20000    308.26194   -5882.4111     31.83694   -14839.233   -23632.906   -21075.646 
   20100    297.07949   -5882.8876     30.68203   -14375.183   -23288.873   -19827.499 
   20200     292.9304   -5883.5553    30.253517   -13705.863   -22390.243   -18583.757 
   20300     303.4031   -5884.3481    31.335125   -12731.596   -20827.352    -17284.13 
   20400    310.65137   -5885.0518    32.083718   -11629.291   -18761.724     -16057.4 
   20500    292.94094   -5885.4783    30.254605   -10628.672   -16470.927   -15030.577 
   20600    290.01991    -5885.653    29.952925    -9266.196   -13641.749   -13709.091 
   20700    303.36613   -5885.6108    31.331307   -7544.5217   -10364.633   -12027.115 
   20800    307.68487   -5885.3271    31.777341   -5781.5047   -7038.5894   -10179.373 
   20900    295.37814   -5884.8787    30.506317   -4108.3098   -3934.3907   -8166.9071 
   21000    273.99647   -5884.4659    28.298042   -2502.5894   -1171.6622   -5882.9868 
   21100    284.47962   -5884.2693     29.38073   -533.97566     1531.449   -2905.9332 
   21200    302.57549   -5884.2064    31.249651    1495.9872    3920.6036    464.97596 
   21300    305.56985   -5884.0955    31.558905    3322.4075    5852.2427    3902.8203 
   21400    297.10217   -5883.8747    30.684372    4977.9363    7461.8444    7313.5532 
   21500     290.0238    -5883.606    29.953326    6584.4414      8958.06    10670.591 
   21600    303.57351   -5883.3638    31.352725    8340.8398    10600.985    14023.877 
   21700    312.16499   -5883.1145    32.240043    9923.3943      12200.2    16990.438 
   21800    299.90265   -5882.8748    30.973602    11114.913    13671.243    19260.335 
   21900    294.64351   -5882.7773    30.430445     12209.55    15301.406    21006.057 
   22000    299.39355   -5882.8775    30.921023    13218.181    17075.366    22232.531 
   22100    303.42476   -5883.1085    31.337362    14012.837    18834.516    22871.432 
   22200    301.07917   -5883.3587    31.095112    14540.981    20443.443    22966.106 
   22300    286.01212   -5883.5528    29.539005    14739.047     21715.52    22588.219 
   22400    278.85102   -5883.7148    28.799414    14856.007     22714.09    22100.051 
   22500    303.43717   -5883.8307    31.338644     15189.32    23631.485    21838.907 
   22600    304.31193   -5883.7422    31.428988    15099.532     23896.99    21271.994 
   22700    295.29328   -5883.4742    30.497552     14753.93    23600.653     20609.48 
   22800    292.94347   -5883.1916    30.254866    14323.795    22860.134    20022.235 
   22900    309.14112   -5883.0136    31.927741    13932.604    21762.653    19627.812 
   23000    311.26004   -5882.9323    32.146581    13186.297    19982.307     19079.19 
   23100    296.27032   -5882.9734    30.598459    12043.764    17568.271    18262.579 
   23200    295.90725   -5883.1992    30.560962    10885.419    14953.445    17396.743 
   23300    302.29408   -5883.5485    31.220587    9639.9446    12204.513    16314.978 
   23400    303.85166   -5883.8888    31.381451    8209.5767    9380.3396    14829.717 
   23500     291.7691    -5884.149    30.133579    6522.8349    6531.1523    12805.356 
   23600    284.67344   -5884.3953    29.400747    4817.6998    3918.8486    10414.886 
   23700    309.15264   -5884.6936    31.928931    3428.6844    1852.9662      7951.66 
   23800    314.42869   -5884.9402    32.473836    1787.0862   -142.27253    4959.7324 
   23900    301.14148   -5885.1093    31.101548   -66.111768   -2089.8855     1574.734 
   24000    295.35958   -5885.3031      30.5044   -1810.6424    -3820.616   -1798.7928 
   24100    299.56232   -5885.5515    30.938454   -3399.8795   -5395.9861   -4993.6596 
   24200    310.46869   -5885.7678    32.064851   -4835.5205   -6896.8056   -7894.4975 
   24300    311.38904   -5885.7957    32.159903   -6269.9826   -8508.0037   -10544.996 
   24400     290.0824   -5885.5728    29.959379   -7825.1771   -10387.067   -12984.118 
   24500    288.74912   -5885.1982    29.821679   -9002.9037   -12126.208   -14742.561 
   24600    301.23713   -5884.6865    31.111427   -9873.5305    -13772.47   -15892.024 
   24700    300.14086    -5884.018    30.998205    -10758.84    -15567.72   -16745.622 
   24800    296.27821   -5883.2949    30.599274   -11544.874   -17360.367   -17261.643 
   24900    302.19003   -5882.6526    31.209841   -12102.738   -18981.372   -17398.523 
   25000    316.97319   -5882.1449    32.736628   -12448.701   -20371.739   -17242.684 
   25100    302.59821   -5881.7835    31.251997   -13032.935   -21792.804   -17286.595 
   25200     283.6241   -5881.7181    29.292372   -13575.873   -22904.713   -17408.845 
   25300    299.36987   -5882.0315    30.918578   -13613.246   -23265.046    -17264.68 
   25400    312.68009    -5882.543    32.293242   -13545.214   -23150.884   -17226.288 
   25500    302.10413   -5883.0113    31.200968   -13569.256   -22720.654   -17453.499 
   25600    293.82748   -5883.3332    30.346166   -13344.161   -21721.902   -17587.875 
   25700    297.91738   -5883.4523    30.768566   -12739.951   -20111.475   -17437.845 
   25800     302.2096   -5883.2883    31.211862   -11894.322   -18105.098   -17037.218 
   25900    304.98145   -5882.8461    31.498135   -10842.953   -15838.272   -16331.236 
   26000    314.07037    -5882.223    32.436829   -9530.4142   -13361.705   -15201.247 
   26100    302.55687   -5881.5746    31.247728   -8336.9934    -11101.53   -13919.897 
   26200    286.36954   -5881.1808    29.575918   -7155.9788   -9075.8114   -12331.915 
   26300    298.39858   -5881.2395    30.818264   -5653.7923   -7073.4656   -10139.532 
   26400     315.8988   -5881.6794    32.625666   -4109.4802   -5314.3653   -7604.0502 
   26500    310.03534   -5882.2969    32.020096   -2850.2455    -3988.844   -5074.7421 
   26600    302.25737    -5882.989    31.216796   -1612.8467   -2810.1549   -2414.2575 
   26700      299.062   -5883.7066    30.886781   -322.51409   -1646.6794    353.72867 
   26800    298.84741   -5884.4014    30.864618    997.62809   -435.78859    3113.5657 
   26900     294.8644   -5885.0264    30.453258    2262.0568    853.04191    5676.2502 
   27000    282.86344   -5885.5705    29.213813    3408.8748    2274.6146    7865.9754 
   27100    295.56058   -5886.0617    30.525159    4817.0595    4213.6892     9946.533 
   27200    315.05286   -5886.3767    32.538298    6282.6447    6514.6691    11720.718 
   27300     305.6387   -5886.3449    31.566016     7393.495     8771.196    12876.448 
   27400    294.62432   -5886.0261    30.428462     8452.838    11124.103    13786.007 
   27500    294.10319   -5885.5532    30.374641    9562.7681    13532.448    14629.089 
   27600    305.83504   -5884.9989    31.586293    10710.943    15876.763    15465.701 
   27700    306.55469   -5884.3832    31.660618    11591.199    17804.325    16096.223 
   27800    298.33064   -5883.8126    30.811247    12190.378    19199.523    16582.096 
   27900    296.68323     -5883.43    30.641104    12656.845    20121.984    17078.942 
   28000    303.07204   -5883.2932    31.300933    12990.185    20559.583    17580.076 
   28100    309.60273   -5883.3514    31.975416    13102.837    20473.202    17982.656 
   28200    296.84225   -5883.5151    30.657528    12780.387    19751.596      18048.4 
   28300    287.38241   -5883.7904    29.680526    12305.622     18728.77     17921.71 
   28400    301.63196   -5884.1753    31.152203    11933.724    17661.235    17793.875 
   28500    311.61881   -5884.5271    32.183634    11361.646    16313.972    17407.185 
   28600    298.26039   -5884.7466    30.803991    10392.432    14568.404    16553.542 
   28700    289.74928   -5884.9217    29.924975    9368.0956    12751.511    15518.363 
   28800    298.06992     -5885.13     30.78432    8431.6124    11034.731     14397.04 
   28900    307.27355   -5885.3114    31.734861     7417.636    9372.9702    12963.591 
   29000    302.67544   -5885.3724    31.259974    6187.4151    7721.2654    11040.361 
   29100    287.92924   -5885.3055    29.737003    4809.4248     6154.027    8702.8244 
   29200    292.20733   -5885.1612    30.178838    3646.7933    4980.6071     6329.368 
   29300     310.8641   -5884.8567    32.105688    2675.5446     4138.767    3966.0975 
   29400    301.13569   -5884.2821     31.10095    1413.3228       3056.9    1330.7668 
   29500    290.29316   -5883.5558    29.981145    174.40113    1915.4274   -1178.1432 
   29600    299.49674   -5882.8394    30.931681   -814.58561    828.61717   -3285.1876 
   29700    306.19992   -5882.1876    31.623978    -1836.135   -524.51745   -5170.9955 
   29800    298.94942    -5881.695    30.875154   -3045.9585   -2329.3671    -6920.739 
   29900    296.69161   -5881.4977     30.64197   -4235.2311   -4406.7441    -8358.027 
   30000    308.08663   -5881.6283    31.818834   -5293.1937   -6605.2364   -9433.8191 
   30100    321.11061     -5881.96    33.163937   -6321.7732   -8897.2369   -10309.101 
   30200    300.50679   -5882.3197    31.035997    -7684.928    -11426.57   -11418.935 
   30300    296.60601   -5882.7041    30.633129     -8748.33    -13481.05   -12357.846 
   30400    300.80094   -5883.0688    31.066377   -9585.3157    -15058.83   -13224.169 
   30500    302.83217   -5883.3094     31.27616   -10279.123   -16194.098    -14098.45 
   30600     293.4081   -5883.3689    30.302853   -10915.485   -16955.246   -15048.572 
   30700    286.71869    -5883.303    29.611978   -11327.438   -17207.134   -15913.258 
   30800    304.23359   -5883.1637    31.420897   -11266.064   -16747.183   -16455.627 
   30900    308.69786   -5882.8775    31.881961   -11169.026   -16026.385   -17007.043 
   31000    297.14627   -5882.4697    30.688927    -11089.36   -15177.226   -17541.767 
   31100    292.45767    -5882.092    30.204694   -10796.464   -14070.157   -17813.366 
   31200    311.92789   -5881.8382    32.215556   -10113.593   -12616.003   -17635.194 
   31300    316.85302   -5881.6477    32.724218   -9506.4648   -11309.438   -17313.263 
   31400    301.62945   -5881.5383    31.151945     -9059.56   -10323.248   -16820.893 
   31500    294.91125   -5881.6323    30.458096   -8459.4375   -9426.6096   -15879.091 
   31600    300.05901   -5881.9595    30.989751    -7675.074   -8588.0131   -14476.339 
   31700    312.07477   -5882.4134    32.230725   -6747.8181   -7790.6359   -12686.373 
   31800    306.27188   -5882.8056    31.631409   -5940.3763   -7173.9364   -10791.245 
   31900    290.77591   -5883.0563    30.031003   -5144.1117   -6539.4755    -8805.486 
   32000    295.56765   -5883.1893    30.525889   -4010.8428    -5521.207   -6522.1825 
   32100    307.83083   -5883.1397    31.792415   -2695.2662   -4184.8043   -4149.6134 
   32200    306.13805   -5882.8504    31.617587   -1463.2875   -2695.7386   -1991.7022 
   32300    279.89826   -5882.4537    28.907572   -492.83481   -1188.8208   -256.60633 
   32400    284.90088    -5882.235    29.424237    810.97445    801.86033    1523.5421 
   32500    301.70868   -5882.2684    31.160127    2177.8873    3027.7399    3109.8868 
   32600    306.50258   -5882.4914    31.655236    3313.2675    5201.3595    4286.8054 
   32700    299.58604   -5882.8683    30.940903    4214.8741    7240.7031    5117.2113 
   32800    292.08632   -5883.4103    30.166341     5008.013    9156.2866    5784.6929 
   32900    299.00139   -5884.1137    30.880521    5871.2751    11032.465    6503.4417 
   33000    320.58265   -5884.8575    33.109409    6829.3611     12839.73    7361.6586 
   33100    312.88575   -5885.4174    32.314482     7392.441    14072.923    8007.8583 
   33200    297.09033   -5885.7448     30.68315      7825.58    14916.223    8727.0516 
   33300    295.11623   -5885.9356    30.479267    8369.4065    15569.065    9735.8791 
   33400    301.62844   -5886.0109     31.15184    8946.7625    15970.153    10944.531 
   33500    309.55631   -5885.9451    31.970622    9467.6968    16081.756    12220.997 
   33600    301.31223   -5885.7365    31.119182    9708.2473    15779.972    13275.627 
   33700    283.95921   -5885.5173    29.326982    9716.9695    15210.248    14034.532 
   33800    294.97103     -5885.44    30.464271     9911.933    14820.607    14780.772 
   33900    307.59273   -5885.4534    31.767825    9974.2207    14386.497    15171.915 
   34000     302.6517   -5885.4534    31.257521    9690.9866    13804.392     14950.84 
   34100    294.93858   -5885.4322    30.460919    9248.0523    13270.519    14261.686 
   34200    295.61678   -5885.4013    30.530963    8786.5476    12882.296    13265.238 
   34300    315.73935   -5885.2996    32.609199    8462.2573    12744.285      12151.8 
   34400    310.19594   -5884.9808    32.036682    7766.6696    12360.149    10544.348 
   34500    290.52332   -5884.5042    30.004916    6839.4966    11783.404    8640.7849 
   34600    291.04421   -5884.0496    30.058713    6070.4329    11301.247     6825.515 
   34700    298.76169   -5883.6799    30.855766    5296.4731    10689.068    5034.8372 
   34800    301.66608   -5883.3938    31.155728    4380.2635    9725.5494    3258.4143 
   34900    300.80625   -5883.1895    31.066926    3344.6793    8349.7023    1605.2956 
   35000    298.62528   -5883.0655    30.841677    2232.1239    6563.4009    157.50964 
   35100    296.96853   -5883.0166     30.67057    1082.0249    4421.4792   -1056.2803 
   35200    301.19431   -5883.0278    31.107004   -18.475659    2067.5972   -2006.2049 
   35300    305.78191   -5883.0517    31.580806   -1105.2959   -424.88116   -2798.4602 
   35400    299.57385   -5883.0503    30.939645   -2283.5242   -3011.0419   -3631.8529 
   35500     288.0653    -5883.065    29.751055   -3475.2285   -5474.1699   -4567.2834 
   35600    296.07366   -5883.1525    30.578149   -4377.5292   -7429.8981   -5445.8941 
   35700    315.91528   -5883.2171    32.627369   -5054.1657     -8867.75   -6364.8576 
   35800    305.65406   -5883.1068    31.567601     -5976.68    -10164.38    -7743.436 
   35900    295.49265    -5882.899    30.518143    -6796.472   -11018.474   -9274.4467 
   36000    296.82918   -5882.7459    30.656178    -7406.643   -11397.242   -10820.463 
   36100     304.7605   -5882.7375    31.475316   -7883.1904   -11447.287   -12370.749 
   36200    311.02163   -5882.8836    32.121958   -8323.9291   -11345.184   -13905.321 
   36300    297.63615   -5883.1424    30.739521   -8929.5358   -11363.327   -15475.498 
   36400    290.51669    -5883.508    30.004232   -9375.6579   -11321.136   -16699.745 
   36500    301.67695   -5883.9129     31.15685   -9492.9665   -11126.644    -17362.24 
   36600    312.62125   -5884.1575    32.287165   -9456.4562   -10981.855   -17530.254 
   36700    294.95492   -5884.0921    30.462607   -9575.8853   -11194.142   -17417.159 
   36800    283.63162   -5883.8396    29.293149   -9459.5192   -11398.746   -16731.137 
   36900    295.34807   -5883.5535    30.503211   -8946.3322   -11434.446   -15387.823 
   37000    301.94503   -5883.2811    31.184537     -8398.17   -11571.865   -13757.305 
   37100    302.23986   -5883.1041    31.214987   -7858.5634   -11724.927   -12018.335 
   37200    298.92667   -5883.1212    30.872804   -7323.2987    -11751.76   -10323.999 
   37300    289.32294   -5883.3893    29.880942   -6838.7549   -11583.266   -8834.2097 
   37400    291.72836   -5883.9016    30.129371   -6180.8509   -10962.858    -7424.491 
   37500      312.726   -5884.5048    32.297983   -5236.8839   -9770.1462   -5996.7359 
   37600    311.99683   -5884.8929    32.222675    -4430.123   -8359.6405   -4906.2547 
   37700    292.29924   -5884.9249    30.188331   -3702.9968   -6697.8584   -4086.0922 
   37800    293.79474   -5884.6774    30.342784   -2599.4966   -4418.6074   -3116.1975 
   37900    301.91706   -5884.1846    31.181648   -1322.8303   -1777.2138   -2133.6553 
   38000    303.75274   -5883.5082    31.371235   -68.134428    927.13345    -1220.544 
   38100     299.8601   -5882.8119    30.969208    1108.7969    3488.4248   -314.20694 
   38200    305.21349    -5882.289      31.5221    2323.5083    5869.7553    771.90925 
   38300    311.06444   -5882.0237     32.12638    3432.3709    7859.9834    1972.5174 
   38400    298.98355   -5882.0305    30.878679    4197.6012    9205.1044    3125.0854 
   38500    291.16866   -5882.3294    30.071566    4882.5261    10091.588    4476.2804 
   38600     301.7957   -5882.8425    31.169115    5676.4502    10687.482    6186.5115 
   38700    320.93644     -5883.33    33.145948    6509.6863    11008.847    8154.0681 
   38800    312.06239   -5883.5174    32.229447    6995.4392    10866.867    9920.9696 
   38900    292.02038   -5883.4161    30.159531     7332.856     10623.53    11465.397 
   39000    293.99116    -5883.241     30.36307    7869.3312    10691.466    12946.938 
   39100    307.43947   -5883.1112    31.751996    8438.6135    10988.601     14125.36 
   39200    308.31165   -5883.0805    31.842074    8725.6032    11256.465    14690.491 
   39300    290.60324   -5883.2378    30.013171    8633.4136    11388.532    14564.352 
   39400    290.75162   -5883.6775    30.028495    8586.3456    11725.058    14139.724 
   39500     302.7012    -5884.293    31.262634    8536.6767    12181.796    13435.692 
   39600    305.55908   -5884.8001    31.557792    8296.5396    12536.427        12382 
   39700    296.16246   -5884.9866     30.58732    7879.9209    12718.179    11105.901 
   39800    288.64139   -5884.8409    29.810553    7467.1457    12793.619    9876.6716 
   39900    308.11853   -5884.4525    31.822129    7347.2809    12949.366    9022.4781 
   40000    309.65603   -5883.8468    31.980921    6967.4329    12615.726    8114.6978 
   40100    292.91164   -5883.2288    30.251579    6279.3356    11694.327    7150.4599 
   40200    290.71702    -5882.885    30.024921    5622.7877    10492.471    6389.0883 
   40300     312.0344   -5882.8868    32.226556    5094.1303    9124.7712    5876.2099 
   40400    311.63654   -5883.0655    32.185466     4187.468    7217.1485    5139.1522 
   40500    302.09099   -5883.2814    31.199612    3101.4633    5038.4183    4288.5065 
   40600    297.13665   -5883.4646    30.687933    2036.9529     2869.682    3424.7056 
   40700     297.4233   -5883.5502    30.717538    1034.4105    873.66665     2488.596 
   40800      306.101   -5883.4786    31.613761    160.75176   -772.08401    1452.8352 
   40900    315.69693   -5883.1831    32.604818   -648.74517   -2056.4845    215.99564 
   41000    296.42421   -5882.6854    30.614353   -1748.0934   -3305.3313   -1525.5271 
   41100    285.09037   -5882.2217    29.443807   -2731.5081   -4199.5846    -3377.609 
   41200    296.72547    -5881.946    30.645467   -3443.5381   -4653.0153   -5157.5263 
   41300    302.34487   -5881.8263    31.225832   -4218.7867   -5044.7143   -7074.5162 
   41400    301.68191   -5881.8016    31.157362   -5033.0396   -5448.7603   -8992.6736 
   41500    296.84953   -5881.8265     30.65828   -5834.6539   -5912.6533   -10755.058 
   41600    288.82837    -5881.888    29.829864   -6592.3725   -6482.8748   -12246.388 
   41700    293.81397   -5882.0099    30.344771   -7101.4433   -6997.0805   -13242.658 
   41800    312.78765   -5882.1534    32.304351   -7331.3479   -7406.2987    -13719.46 
   41900    307.43139   -5882.2238    31.751162   -7717.1886      -8101.1   -14080.205 
   42000     293.3649   -5882.2914    30.298391   -8083.2155   -8901.1326   -14187.247 
   42100      297.088   -5882.4762    30.682908   -8135.2897    -9507.214   -13808.434 
   42200    303.97516     -5882.75    31.394206   -8045.8284   -10035.979    -13148.05 
   42300     302.5491   -5883.0042    31.246924   -7935.3927   -10516.391   -12391.828 
   42400    283.12225   -5883.1732    29.240542   -7914.2428   -10952.139   -11735.039 
   42500    285.41689   -5883.2994     29.47753   -7516.9151   -10839.783   -10834.511 
   42600    300.11189   -5883.3173    30.995212   -6841.9406   -10233.533   -9817.1986 
   42700    301.06913   -5883.1011    31.094075   -6188.4017   -9359.4118   -8987.9006 
   42800    297.99344   -5882.6752    30.776422   -5458.0352   -8119.9841   -8272.5581 
   42900    300.24975   -5882.1575    31.009451   -4577.3432   -6491.7808   -7590.5105 
   43000    311.76272   -5881.6482    32.198497   -3535.7152   -4533.9269   -6891.7147 
   43100    306.58349   -5881.2116    31.663592   -2680.7193   -2637.3299   -6375.5409 
   43200    284.38518   -5881.0017    29.370976   -2069.9495   -972.95869   -5987.5689 
   43300    290.66415   -5881.1698    30.019461   -1193.9477    794.31091   -5284.9351 
   43400    304.15512   -5881.6148    31.412793   -292.07354    2436.7141   -4416.5227 
   43500    305.89051   -5882.0971    31.592022    449.29729    3769.2343   -3476.4769 
   43600    297.46305   -5882.4597    30.721644    1075.1744    4803.9426   -2406.5129 
   43700    293.16387   -5882.6941    30.277629     1752.002    5667.4346   -1081.9027 
   43800    304.59627   -5882.8584    31.458354     2597.438    6456.7567    570.31026 
   43900    324.99496   -5882.9581    33.565107    3514.1514    7101.6356    2439.4714 
   44000    305.52994   -5883.0184    31.554782    3889.0333     7151.803    3907.1004 
   44100     297.8901   -5883.2705    30.765749    4291.1677    7214.0094     5278.133 
   44200    300.25813     -5883.83    31.010316    4672.4278    7326.9576    6410.7753 
   44300    301.91405   -5884.6262    31.181337    4923.2804    7472.4951    7143.6844 
   44400    292.52117   -5885.5018    30.211252     4965.517    7633.6124    7380.0504 
   44500    294.51046   -5886.3402    30.416703    5113.2544    8109.1774    7417.5279 
   44600    306.09325   -5887.0106    31.612961    5387.4365    8891.2837    7338.1061 
   44700    313.50163   -5887.3622    32.378089    5663.0903    9809.2839    7110.1705 
   44800    295.88495   -5887.3728    30.558659    5691.0831    10547.477    6591.4989 
   44900    288.18231   -5887.2437    29.763139    5841.6822    11361.519    6181.2008 
   45000    301.77474   -5887.1321     31.16695      6207.38    12273.523    5984.4892 
   45100    309.54282   -5887.0252    31.969228    6441.8887    12901.877    5738.5828 
   45200    299.91061   -5886.9097    30.974425    6378.4893    13017.131    5364.6507 
   45300     291.8282   -5886.8644    30.139683    6209.3839    12737.547    5056.5621 
   45400    306.99489   -5886.9453    31.706081     6178.199    12255.689    5014.1468 
   45500    323.99435   -5887.0459    33.461765    6045.7686    11379.303    5041.5495 
   45600    301.90606   -5887.0778    31.180512    5331.0536    9800.0753    4687.4692 
   45700    293.60196   -5887.1903    30.322874    4655.6471    8133.1458    4362.0237 
   45800       299.61   -5887.4604    30.943378     4025.159    6458.2004     4003.258 
   45900    310.83687   -5887.8245    32.102876    3357.0961     4797.849    3490.3229 
   46000    302.04642   -5888.1516    31.195009     2389.341    3047.2053    2548.7582 
   46100    289.00067   -5888.4152    29.847659    1338.2495    1463.0234    1300.1736 
   46200    297.99612    -5888.627    30.776698    531.30263    333.03646    8.2870329 
   46300    307.63612   -5888.6636    31.772307   -257.45338   -522.71461   -1492.9028 
   46400    299.44568   -5888.4147    30.926407    -1217.823   -1302.9941   -3305.7639 
   46500    273.56199   -5887.9631    28.253169     -2348.59   -2102.7946   -5341.3716 
   46600    285.00294   -5887.4856    29.434778   -3014.3787     -2487.32   -6958.3207 
   46700    296.10113   -5886.9637    30.580986   -3663.6893   -2873.5995   -8497.9926 
   46800    303.10662   -5886.3683    31.304505   -4320.3431   -3365.2134   -9879.4912 
   46900    303.28729   -5885.7082    31.323164    -5002.003   -4036.7842     -11047.2 
   47000    298.80622    -5885.026    30.860364   -5673.6255   -4875.7981   -11946.278 
   47100    300.55549   -5884.3564    31.041027     -6197.93   -5733.5842   -12475.995 
   47200    309.15737   -5883.6533     31.92942   -6551.7597   -6539.8341   -12651.924 
   47300    302.74395    -5882.849    31.267049    -6974.558   -7458.2553   -12731.763 
   47400    285.09324   -5882.0068    29.444103   -7420.2723   -8378.5741   -12747.356 
   47500    287.19035   -5881.2537     29.66069   -7536.5504   -8927.6354   -12438.756 
   47600     301.6729   -5880.5443    31.156432   -7410.4271   -9173.4986   -11891.405 
   47700    301.02313   -5879.7937    31.089325   -7353.2385   -9358.4189   -11425.552 
   47800    299.22359   -5879.0399     30.90347   -7204.6874   -9283.4511   -10950.595 
   47900    304.63771   -5878.3661    31.462634   -6886.9739   -8835.6378   -10449.022 
   48000    311.58125    -5877.831    32.179755   -6487.8081   -8065.6889   -10042.162 
   48100    300.56927   -5877.4934     31.04245   -6255.7747   -7215.2541   -9956.9736 
   48200    283.43032   -5877.4816    29.272359   -6069.9917   -6246.0063   -10030.995 
   48300    297.93918   -5877.8408    30.770818   -5485.4874     -4807.47   -9803.4352 
   48400    310.64228   -5878.3448    32.082779   -4858.8502   -3314.2564   -9504.5474 
   48500      305.658   -5878.7354    31.568009   -4322.0289   -2000.1963    -9127.798 
   48600    299.08644   -5878.9476    30.889305   -3666.5565   -736.08166   -8404.1668 
   48700    297.36468   -5879.0242    30.711483   -2831.2963    517.04731   -7267.0475 
   48800    300.40996   -5879.0171    31.025997   -1843.2944    1747.4771   -5772.6621 
   48900    314.55846   -5878.9517    32.487237   -652.56487    3032.6882   -3922.8821 
   49000    314.39747   -5878.8034    32.470611    411.33078    4091.5647   -2061.5694 
   49100    292.96882   -5878.6897    30.257485     1205.853    4846.3962   -388.94394 
   49200    294.74708   -5878.8455    30.441141    2198.9959    5757.6853    1446.4839 
   49300    308.07212   -5879.3089    31.817336    3228.0852    6703.3172    3252.1666 
   49400    307.54782   -5879.9415    31.763187    4002.1878    7494.2971    4707.6913 
   49500    290.91553   -5880.6264    30.045423    4509.1134    8198.1146     5729.781 
   49600     300.3666   -5881.3475    31.021519    5264.7748    9300.1716    6750.6936 
   49700    308.48429   -5881.9601    31.859905    5965.6178    10537.354    7500.7723 
   49800    295.22465   -5882.3618    30.490464    6382.4983    11662.084    7812.4961 
   49900    289.29121   -5882.6551    29.877665    6833.1449    12881.412    8028.7607 
   50000    300.39836   -5882.9428    31.024799    7406.8768    14206.492    8274.5524 
   50100    305.62862   -5883.1911    31.564974    7820.0244    15296.822    8358.2631 
   50200    302.51261   -5883.3776    31.243156     8033.281    16020.252    8322.5791 
   50300    299.68382   -5883.5406    30.951002     8134.184    16376.868    8308.3019 
   50400    299.82156   -5883.7265    30.965228    8142.3459    16346.331    8359.9531 
   50500    300.96697   -5883.9544    31.083524     8032.689    15921.159    8439.8052 
   50600     294.7092   -5884.2114    30.437229    7714.3522    15081.493    8413.8419 
   50700    282.26052   -5884.5012    29.151544     7215.254    13949.429    8227.0673 
   50800    299.26952    -5884.818    30.908214    6987.7546    13016.553    8240.5589 
   50900     310.7875   -5884.9709    32.097777    6664.1174    11967.151     8135.695 
   51000    299.45312   -5884.8224    30.927176    6074.3822    10691.855    7741.2234 
   51100    288.44121   -5884.4672    29.789878    5486.7192    9483.4045    7257.8869 
   51200    301.47232   -5884.0277    31.135717    5166.6736    8612.8423    6885.1168 
   51300    310.31239    -5883.466    32.048708     4777.308    7825.1555    6271.2905 
   51400    296.37466   -5882.8207    30.609236    4068.8651    6924.5026    5151.8771 
   51500    290.33668   -5882.2823    29.985641    3363.3407    6164.5573    3810.8772 
   51600    304.55482   -5881.9563    31.454073    2786.5823    5621.3588    2370.3706 
   51700    309.02412   -5881.7964    31.915658    1986.3581    4948.8648    577.08664 
   51800    299.68406   -5881.7774    30.951027    928.13194    4014.9304   -1482.9565 
   51900     296.2626   -5881.9324    30.597663   -135.49577    2923.2691   -3463.7043 
   52000    300.73074   -5882.2421    31.059126   -1150.5941    1650.0889   -5217.3145 
   52100    303.49295   -5882.6257    31.344404    -2187.456    119.05413   -6748.0448 
   52200     299.9636   -5883.0198    30.979897   -3258.6799   -1635.8331   -8075.3224 
   52300    290.63544     -5883.42    30.016496    -4331.013   -3499.8899    -9230.106 
   52400     285.2799   -5883.8582    29.463382   -5273.2315   -5271.1764   -10162.819 
   52500    302.45891   -5884.3151     31.23761    -5843.872   -6672.0462   -10691.715 
   52600    316.54684   -5884.6146    32.692595   -6307.9806   -7911.1304   -11064.005 
   52700    299.63843   -5884.6186    30.946314   -6977.7064   -9215.2686   -11612.043 
   52800    291.88043   -5884.4632    30.145077   -7404.4263   -10142.386   -11970.528 
   52900    298.24484   -5884.2913    30.802386   -7561.6769    -10661.68   -12144.537 
   53000    305.42516   -5884.1508    31.543961   -7625.3827   -10915.394   -12318.431 
   53100    302.33061    -5884.064    31.224359   -7740.6949   -11026.983   -12626.843 
   53200    277.92909   -5884.0935    28.704199   -8058.8037   -11140.215   -13192.461 
   53300    286.75073   -5884.3517    29.615287   -7943.7983    -10716.49   -13458.591 
   53400    305.96148   -5884.7402    31.599351   -7643.1048   -9939.0201   -13655.843 
   53500    306.69064   -5885.0481    31.674658   -7458.9491   -9109.4417   -13972.746 
   53600    294.46953   -5885.2098    30.412476   -7310.2819   -8254.9029   -14228.941 
   53700      291.635   -5885.2802    30.119729   -6940.4153   -7247.5377   -14115.987 
   53800     312.1414   -5885.2581    32.237606   -6186.1583   -6013.7372    -13432.86 
   53900    318.30141   -5885.0007    32.873805   -5485.6738    -4975.236   -12503.491 
   54000     299.9034   -5884.5198     30.97368   -4987.1217   -4287.0875   -11448.212 
   54100    291.32255   -5884.0445    30.087459   -4343.3309    -3649.994   -10028.554 
   54200    300.56835   -5883.7394    31.042355   -3510.0942    -2983.159     -8296.87 
   54300    310.85501   -5883.6154     32.10475   -2708.2017   -2391.2497   -6537.9575 
   54400    303.12829   -5883.6299    31.306743   -2164.4093   -1964.4036   -5053.9184 
   54500    298.00185   -5883.7923     30.77729   -1625.6021    -1418.964   -3709.1201 
   54600    301.05443   -5884.0657    31.092557   -1007.1704   -638.84515   -2466.7359 
   54700    302.02564   -5884.3385    31.192862   -395.47434    341.78898   -1422.9406 
   54800    295.65452   -5884.5141     30.53486    181.95969     1510.508   -599.89572 
   54900    288.03275   -5884.5682    29.747693    814.40634     2915.707    119.98221 
   55000    299.74562   -5884.5005    30.957384     1750.843    4737.2676    1017.8764 
   55100    311.66144   -5884.2076    32.188037    2771.5548    6727.2341    1933.7179 
   55200    298.71574   -5883.6567     30.85102    3558.7124     8497.367    2639.1122 
   55300    288.14913   -5883.0501    29.759712    4369.2144    10178.796    3428.0308 
   55400    308.52824   -5882.5834    31.864444    5478.3137    11942.231     4575.548 
   55500    310.33446   -5882.2679    32.050988    6252.3185    13167.344    5520.5387 
   55600    296.92429   -5882.1776       30.666    6685.8436     13803.21    6280.2523 
   55700    293.78163   -5882.4135    30.341431    7054.7584    14095.066     7082.498 
   55800     305.7086   -5882.9305    31.573234    7428.5106    14152.132    7950.3994 
   55900     319.7421   -5883.5153    33.022598    7704.8706     13965.48    8754.6965 
   56000    299.93051   -5883.9336     30.97648    7512.1968    13318.197    9101.0495 
   56100    293.69116   -5884.1966    30.332087    7439.2899     12834.32    9430.7001 
   56200    299.96346   -5884.3373    30.979883    7474.6824    12546.767    9691.7663 
   56300    308.56599   -5884.3181    31.868342    7501.8762    12373.356     9760.871 
   56400    303.16026   -5884.1279    31.310045    7315.1634    12124.654    9454.0911 
   56500    283.78044   -5883.8967    29.308519    6873.2277     11724.72      8745.79 
   56600    291.99796   -5883.8044    30.157216     6634.679    11518.324    8061.9056 
   56700    306.64153   -5883.8052    31.669586    6349.2211    11306.791    7167.1462 
   56800    302.86618   -5883.7654    31.279673    5745.4202    10851.498    5852.8537 
   56900    294.68541   -5883.6712    30.434772    5008.9222    10273.885    4341.4275 
   57000    294.80623   -5883.5697     30.44725     4302.945    9669.9158    2839.4798 
   57100    315.05278   -5883.4548    32.538291    3791.1827    9137.5176    1560.4774 
   57200    309.82512   -5883.2393    31.998384    2956.6068    8177.1208    135.15957 
   57300     292.6174   -5883.0109     30.22119    1959.7687    6856.8625   -1225.7218 
   57400    294.30806   -5882.9179    30.395799    1153.9211    5437.4387    -2183.988 
   57500    302.45748    -5882.953    31.237463    396.47508    3819.7727   -2888.2868 
   57600    304.25393   -5883.0361    31.422997   -445.07405     1969.547   -3527.5263 
   57700    297.93042   -5883.1503    30.769912   -1380.2572   -14.880652   -4212.4278 
   57800    276.26255   -5883.3874     28.53208   -2503.6148   -2106.4252   -5138.4951 
   57900    285.95353   -5883.9195    29.532954   -3271.4428   -3760.1896   -5891.7588 
   58000    307.37135    -5884.722    31.744961   -3900.4267   -5111.6835   -6695.1798 
   58100    309.48103   -5885.5811    31.962847   -4709.8292   -6382.0679   -7856.5494 
   58200    300.01023   -5886.3642    30.984713   -5571.2077   -7454.1067   -9235.2475 
   58300    299.72242   -5887.0393    30.954989     -6221.54   -8136.9424   -10529.553 
   58400    301.05897   -5887.5499    31.093026   -6736.3833   -8554.4846   -11739.387 
   58500    295.64517   -5887.8448    30.533895   -7203.6247   -8829.7284   -12888.082 
   58600    278.86594   -5887.9594    28.800955    -7683.311   -9041.1242   -13997.873 
   58700    291.12012   -5888.0003    30.066553   -7703.9156   -8785.5329   -14620.771 
   58800      305.249   -5887.9109    31.525767   -7573.0362    -8351.166   -15007.837 
   58900    300.65588   -5887.6251    31.051395   -7523.0998   -8005.7905   -15280.165 
   59000    293.02628   -5887.2324    30.263419   -7383.8407   -7668.7168   -15219.204 
   59100    299.85439   -5886.8438    30.968618   -6971.3267   -7232.1392   -14637.304 
   59200    312.71161   -5886.4453    32.296497   -6393.7982   -6802.1667   -13626.205 
   59300    301.08721   -5885.9866    31.095943    -6030.175   -6653.5035   -12563.895 
   59400    289.17282    -5885.541    29.865438    -5628.358   -6515.9519   -11342.005 
   59500    301.21439   -5885.1614    31.109078   -4927.3675   -6108.1595   -9853.2463 
   59600       314.54   -5884.7468    32.485331   -4199.4336   -5564.6524   -8420.3409 
   59700    298.56653   -5884.2781     30.83561   -3821.1118   -5104.2681    -7454.696 
   59800    289.28258   -5883.9476    29.876774   -3396.9033   -4406.8888   -6664.1424 
   59900    301.99683   -5883.8832    31.189887   -2764.2159   -3368.8166   -5899.6345 
   60000    312.79474   -5884.0244    32.305082   -2191.3114   -2221.6642   -5349.1778 
   60100    302.36613   -5884.2606    31.228028   -1868.7163   -1151.4581   -5118.0487 
   60200    298.05965   -5884.5704    30.783259   -1445.6222     70.88349   -4831.7256 
   60300    301.33915   -5884.8966    31.121963   -888.71197    1426.2946   -4402.6524 
   60400    301.13704   -5885.1175    31.101089   -306.93427    2777.5494    -3874.044 
   60500    292.68163   -5885.1494    30.227823    253.08267    4034.0213   -3244.4903 
   60600    285.59943   -5885.0072    29.496382     891.7947    5236.9264   -2396.0829 
   60700     303.0112   -5884.7309     31.29465    1861.9877    6588.7124   -1099.8448 
   60800    306.98081   -5884.2908    31.704627    2690.5206    7647.1765    212.23015 
   60900    296.62563   -5883.8221    30.635156    3321.0972     8376.866    1445.7152 
   61000    291.97219   -5883.5864    30.154554    3927.1441    8950.0582    2695.8908 
   61100    312.39255   -5883.7258    32.263546    4701.1449    9537.4285    4101.0536 
   61200    317.16759   -5884.1149    32.756706    5164.5575     9744.558    5221.5609 
   61300    301.41742   -5884.5762    31.130047    5291.4752    9637.7836    5963.4264 
   61400    299.15182   -5885.0279    30.896058    5511.6015     9689.423    6621.2366 
   61500    298.73094   -5885.3459     30.85259    5710.9587    9874.2626    7035.2155 
   61600    296.52576   -5885.4411    30.624842    5866.8956    10213.847    7160.1995 
   61700    295.85134   -5885.3184    30.555188    6020.6279    10738.903    7044.8467 
   61800    304.81074     -5885.04    31.480505    6256.0465    11478.141    6803.6224 
   61900    308.69699   -5884.6676    31.881872    6376.4926     12175.59     6337.687 
   62000     295.6473   -5884.3374    30.534115     6203.077    12567.114    5583.9331 
   62100     283.3277   -5884.2684    29.261761    5899.5164    12687.805    4760.1772 
   62200    304.90123   -5884.5608    31.489851    5843.2344    12807.698    4230.9163 
   62300    316.07479   -5885.0036    32.643842    5537.6542    12492.837    3591.5776 
   62400    303.16646    -5885.321    31.310685    4880.8657    11650.136     2782.963 
   62500    294.77333   -5885.4148    30.443852    4250.5413    10633.263    2132.7528 
   62600    295.68148   -5885.2436    30.537645    3723.2801    9536.7231    1696.6347 
   62700    307.48366   -5884.7849    31.756561    3333.8652    8419.7515    1490.7527 
   62800    311.99439   -5884.0514    32.222423    2871.6412     7131.997    1297.5028 
   62900    286.28288   -5883.2309    29.566968     2037.506    5486.3959    774.44243 
   63000    274.97912   -5882.7053    28.399529    1309.3085    3980.0238    246.54676 
   63100    294.41179    -5882.619    30.406513    858.76502    2787.0954   -170.98882 
   63200    306.78811   -5882.8177    31.684725    266.48454    1605.3218   -874.90954 
   63300    305.88651   -5883.0881    31.591608    -491.3393    480.37006    -1917.647 
   63400    292.46382   -5883.3048    30.205329   -1373.1435   -514.19344   -3282.4263 
   63500    292.26047   -5883.4656    30.184327   -2062.5074   -1086.7453   -4692.5956 
   63600    310.95442   -5883.5263    32.115017    -2478.997   -1192.4431   -6036.6728 
   63700    318.34902   -5883.3495    32.878722   -2955.6449   -1215.1391   -7516.1597 
   63800    288.62224    -5882.961    29.808575   -3799.1201   -1588.7015   -9251.8389 
   63900    289.45747   -5882.6245    29.894836    -4235.018   -1746.9496   -10430.609 
   64000    304.20722   -5882.4046    31.418174   -4470.9545   -1938.4374   -11184.732 
   64100    308.15015   -5882.2139    31.825395   -4778.5008    -2426.769   -11716.236 
   64200     295.9358    -5882.004    30.563911   -5203.2134   -3231.5097    -12064.97 
   64300    286.60424   -5881.8327    29.600158   -5521.9137   -4092.0219   -12091.009 
   64400     306.1905   -5881.7364    31.623005   -5428.1172   -4654.1257   -11613.177 
   64500    312.12612   -5881.6054    32.236029   -5417.6096   -5295.0925   -11110.485 
   64600    298.44034   -5881.4584    30.822577   -5571.1395   -5986.0123   -10749.049 
   64700     293.7936   -5881.4882    30.342667   -5586.6623    -6396.335    -10362.48 
   64800    303.89493   -5881.8092     31.38592   -5422.1457   -6469.4957   -9955.1714 
   64900    324.58514   -5882.3589    33.522782   -5116.5798   -6216.5762   -9574.6822 
   65000    312.21609   -5882.9333     32.24532   -5154.0595   -6040.4834    -9631.259 
   65100    298.62915   -5883.4641    30.842077    -5131.695   -5609.5494   -9748.4855 
   65200    296.46226    -5883.963    30.618283   -4897.9652   -4842.4834   -9747.5379 
   65300    298.93926   -5884.3589    30.874104   -4522.0136   -3846.0369   -9637.8778 
   65400    301.96829    -5884.567     31.18694   -4041.3777    -2696.346   -9406.9861 
   65500    299.49073    -5884.539     30.93106   -3528.7997   -1514.6194   -9068.7649 
   65600    292.69365   -5884.3169    30.229066   -2990.9474   -372.66963   -8581.5099 
   65700    297.46347   -5884.0081    30.721687   -2271.6061    824.19744    -7792.998 
   65800    310.16749   -5883.6681    32.033743   -1440.6286    1984.9684   -6758.0182 
   65900    303.96245   -5883.3455    31.392894   -844.53921     2781.271   -5758.1961 
   66000    286.76681   -5883.2055    29.616948   -427.85017    3282.0955   -4781.3207 
   66100    285.53246   -5883.4087    29.489465    98.102269    3774.0948   -3641.2616 
   66200    315.90584   -5883.8985    32.626394    925.23446    4450.8399   -2193.8334 
   66300    311.66628   -5884.3525    32.188537    1312.6774    4702.7963   -1073.0065 
   66400    296.00795    -5884.608    30.571362    1577.2436    4873.4111   -60.994843 
   66500    294.16893   -5884.6683     30.38143    2019.5469    5272.1783    1056.1693 
   66600    302.47827   -5884.5013     31.23961    2594.8879    5914.0201    2179.6271 
   66700    311.49171   -5884.0456    32.170507     3195.899    6769.0318    3139.6837 
   66800     303.0481   -5883.3096    31.298461     3600.043    7673.1325    3677.3982 
   66900    279.77305   -5882.5094    28.894641    3800.2689    8593.6124    3776.5378 
   67000    289.25895   -5881.9113    29.874333     4319.793    9954.3482    3934.3396 
   67100    301.22322   -5881.5278     31.10999    4785.7283    11308.315    3909.9816 
   67200    303.68861   -5881.2849    31.364613    5074.5682    12418.572      3722.63 
   67300    299.93719   -5881.1109     30.97717    5244.8984    13249.681      3521.26 
   67400    292.12755   -5880.9489      30.1706     5333.744    13793.294    3383.7353 
   67500    294.18708   -5880.7659    30.383305    5510.9538    14204.453    3467.1453 
   67600     309.7504   -5880.4805    31.990666    5827.8398    14548.507     3802.353 
   67700    305.04672   -5880.0151    31.504876     5878.124    14456.218    4005.4003 
   67800    288.65903   -5879.5292    29.812375    5721.5237    13994.525    4101.5685 
   67900    288.69753   -5879.2995     29.81635    5635.5447    13436.513    4290.7369 
   68000     313.9947   -5879.4263    32.429013    5705.6746    12873.465    4622.6865 
   68100    309.16825   -5879.7993    31.930543    5283.5483    11739.383    4519.8747 
   68200     297.6313   -5880.3955     30.73902    4665.6216    10451.008     4114.708 
   68300    299.89507   -5881.2057     30.97282    4114.0633    9370.3436    3530.3071 
   68400    302.66582   -5882.0974    31.258979     3506.802    8444.0954    2625.1488 
   68500    290.17397   -5882.9129    29.968835    2696.8127    7542.7463     1285.029 
   68600    290.84749   -5883.6164    30.038396    2048.0994    6993.8236   -126.23015 
   68700    302.78632   -5884.1645    31.271425    1558.2354    6759.0068   -1558.5599 
   68800    304.54345   -5884.4597    31.452899    996.16257    6562.2203   -3144.7249 
   68900    299.39684   -5884.5276    30.921363    402.59271    6365.8313   -4759.6248 
   69000    295.94302   -5884.4959    30.564656   -140.23427     6165.942    -6249.918 
   69100    303.74159   -5884.4792    31.370084   -537.00169    5988.2526   -7474.4007 
   69200    320.49052   -5884.4656    33.099894   -811.27891    5779.1509   -8418.4507 
   69300    302.20251   -5884.3725     31.21113   -1485.6612    5017.1266   -9491.4625 
   69400    291.98511   -5884.2793    30.155888   -2061.3865     4141.122   -10254.719 
   69500    298.35879   -5884.2122    30.814155   -2442.0439    3234.1336   -10634.168 
   69600    307.68016   -5884.0796    31.776855   -2775.6502    2178.2136   -10767.258 
   69700    303.39068   -5883.8156    31.333843   -3247.8849    864.78553   -10857.373 
   69800    280.64021   -5883.5301      28.9842   -3931.1397   -669.48255   -11064.167 
   69900    290.14661    -5883.435     29.96601   -4241.9754   -1808.8247    -11005.23 
   70000    306.06212   -5883.5226    31.609746   -4480.2497   -2725.1937   -11006.517 
   70100    304.99943   -5883.6816    31.499993   -4889.4451   -3513.9131    -11355.41 
   70200    294.72728   -5883.8742    30.439096   -5351.0618   -4007.0684   -11993.817 
   70300    291.27156   -5884.1094    30.082194   -5661.5427   -4038.5855   -12721.572 
   70400    310.58001   -5884.3371    32.076348     -5613.18   -3465.7732   -13293.245 
   70500      317.295   -5884.3622    32.769865   -5593.4343    -2729.352   -13944.289 
   70600    295.75232   -5884.1022    30.544961   -5774.6247   -2113.9056   -14709.803 
   70700    290.62739   -5883.7066    30.015664   -5652.6472   -1224.8779   -15086.462 
   70800    299.10726   -5883.2515    30.891455   -5285.6114   -192.29595    -15069.14 
   70900    302.56789   -5882.7385    31.248866   -4906.2514     679.1108   -14795.176 
   71000    298.49019   -5882.2319    30.827725   -4561.8852    1283.0397   -14264.102 
   71100    297.20502   -5881.8607    30.694995   -4154.7789    1710.8191   -13408.183 
   71200     300.0899   -5881.7196    30.992942   -3686.3998    1998.6824   -12280.614 
   71300    302.31264   -5881.8236    31.222504   -3215.6422    2146.4113   -10993.715 
   71400    302.83957   -5882.1157    31.276925   -2741.3544    2226.9871    -9615.289 
   71500    301.17746   -5882.4905    31.105263   -2248.6584    2332.0973   -8203.5597 
   71600    296.46235    -5882.833    30.618293   -1729.2196    2542.6881   -6819.5093 
   71700    283.74129   -5883.0687    29.304476   -1236.7922    2871.7561   -5578.5431 
   71800    282.14959   -5883.2124    29.140087   -554.79148    3582.7459   -4347.8131 
   71900    304.90622   -5883.2361    31.490366    473.67443    4863.3794   -3031.5513 
   72000    304.63756   -5883.0188    31.462619    1281.2521    6214.9167   -2182.3541 
   72100    294.14421   -5882.6471    30.378877    1980.7274    7714.1099   -1681.5837 
   72200    292.54494   -5882.3337    30.213706    2737.9621    9399.2624   -1309.9951 
   72300    313.32687   -5882.2049     32.36004    3672.8417     11245.61   -875.05337 
   72400    310.60136   -5882.2364    32.078553    4214.6355    12644.949   -760.48077 
   72500    298.74774   -5882.4756    30.854324    4514.8232    13595.188   -712.34029 
   72600    300.18868   -5882.9682    31.003144    4836.3754    14250.114   -449.35079 
   72700     303.5999   -5883.6024    31.355451     5070.788    14525.289    -51.46627 
   72800    295.94798   -5884.1851    30.565169     5108.057    14365.196    381.62225 
   72900    282.44528   -5884.6011    29.170625    5042.6391    13903.887     896.0639 
   73000    294.83637   -5884.8292    30.450363    5266.3137    13538.283    1776.6688 
   73100    301.40679   -5884.7737    31.128949    5407.6072    13020.382    2636.5347 
   73200    298.74249    -5884.467    30.853783     5407.609    12392.994    3316.7269 
   73300    298.29815   -5884.1151    30.807891    5350.3238     11786.64    3794.2049 
   73400    306.53986   -5883.9269    31.659086    5260.4257    11252.223     4023.644 
   73500    312.39943   -5883.9875    32.264255    4981.8496    10679.572    3827.7983 
   73600    294.52945   -5884.2775    30.418665    4271.4566    9870.4775    2975.4044 
   73700    292.54716   -5884.7694    30.213936    3640.6148    9281.0194    1934.4199 
   73800    304.40504   -5885.2921    31.438604    3122.2157    8942.2783    781.91181 
   73900    306.68514   -5885.5533     31.67409    2521.9067    8658.9338    -588.5936 
   74000    282.21979    -5885.409    29.147337    1693.3729    8229.5605   -2223.1546 
   74100    283.69096   -5884.9828    29.299278    1269.1138    8208.0081   -3458.6228 
   74200    294.76148   -5884.3208    30.442628    1044.9982    8357.4984    -4447.017 
   74300    298.00659   -5883.4698    30.777779     798.5428    8375.6579   -5314.9626 
   74400    300.92551   -5882.5825    31.079242    578.93243    8214.6443   -5937.8495 
   74500    303.08336   -5881.8422    31.302102    327.66506    7756.8565   -6334.8106 
   74600    306.41073   -5881.4003     31.64575    21.212325    6983.2505   -6557.8462 
   74700    313.87365   -5881.2993    32.416512   -324.78492    5965.2247   -6665.8843 
   74800    302.23337   -5881.4602    31.214317   -980.44589    4540.3607    -6992.846 
   74900    292.08246   -5881.8289    30.165942    -1679.078    3044.7531   -7380.9032 
   75000     299.7158   -5882.3312    30.954305   -2194.2328    1745.5377   -7658.1963 
   75100    311.24482   -5882.7853    32.145009    -2638.703    596.73945   -7947.2732 
   75200    300.87768   -5883.0192    31.074303   -3267.3212   -570.53959   -8517.6669 
   75300     286.8441   -5883.0696     29.62493   -3844.5211   -1478.1137   -9180.8398 
   75400    297.27388   -5883.0489    30.702106   -4038.8946   -1792.5743   -9640.3965 
   75500    307.50354     -5882.92    31.758614   -4131.8097   -1763.7626   -10162.711 
   75600    301.64843   -5882.6652    31.153904   -4306.9499   -1589.8201   -10879.686 
   75700    295.09818   -5882.3923    30.477403   -4402.6394   -1179.9162   -11586.516 
   75800    296.75902   -5882.1986    30.648932   -4339.0061   -522.03348   -12164.836 
   75900    298.78293   -5882.0831    30.857959   -4223.6872    213.36774   -12654.697 
   76000    300.85372    -5881.995    31.071828   -4066.1479    922.16026   -12981.139 
   76100    302.04546   -5881.8847     31.19491   -3882.1955    1488.2416    -13068.89 
   76200    300.25855   -5881.7503    31.010359   -3707.3647    1811.5213   -12894.514 
   76300    296.13939   -5881.6577    30.584937   -3551.3359    1881.7827   -12477.977 
   76400    298.21289   -5881.6864    30.799086   -3325.0335    1839.5695   -11809.129 
   76500    308.02879   -5881.8208    31.812861   -3000.9684    1804.0715   -10949.431 
   76600     306.6827   -5881.9341    31.673838   -2775.7764    1700.6516   -10149.197 
   76700    288.35915   -5881.9623    29.781403   -2701.0608    1564.3088   -9520.5669 
   76800    290.91437   -5881.9736    30.045303   -2330.1743    1829.5991   -8703.0583 
   76900    304.67952   -5881.9497    31.466953   -1777.8812    2397.6514   -7795.9246 
   77000    303.54424   -5881.8309    31.349702   -1353.1319    3005.7552   -7085.7554 
   77100    298.00276   -5881.6714    30.777384   -949.60374    3751.9756   -6498.5859 
   77200    296.79421     -5881.56    30.652566   -492.45464    4679.6774   -5973.3676 
   77300    309.10668   -5881.5257    31.924185    110.40497    5829.5369   -5407.8462 
   77400    317.83053   -5881.4918    32.825173    655.58542    6976.6529   -4954.9906 
   77500     295.9335   -5881.4403    30.563673    810.99147    7768.6393    -4886.845 
   77600    293.23202   -5881.5378    30.284667    1143.5555    8667.1153   -4657.9524 
   77700    303.54357   -5881.8164    31.349632     1572.153    9559.2207   -4306.7621 
   77800    308.30146   -5882.1392    31.841022    1903.3945    10213.175   -3943.3686 
   77900    288.07984   -5882.3744    29.752557    1934.3643    10384.844   -3692.6822 
   78000    287.62046   -5882.5601    29.705112    2204.7763    10533.367   -3004.3599 
   78100    301.86333   -5882.6757    31.176099    2659.8345     10660.75   -1978.8548 
   78200    304.51545   -5882.6262    31.450008    3000.6158    10614.002   -1012.4286 
   78300    298.09815   -5882.4463    30.787236    3246.5751    10540.028   -214.88827 
   78400    292.82642   -5882.2806    30.242778    3483.3666    10592.789    402.49487 
   78500    301.69621   -5882.2609    31.158839    3831.0007    10889.345    920.35963 
   78600    313.51413    -5882.396     32.37938    4140.6038    11259.839    1225.5232 
   78700    302.00542   -5882.6425    31.190774    4087.7333    11366.976    1060.9528 
   78800    293.53318     -5883.05    30.315771    3972.4486    11438.017    729.70858 
   78900    300.67334   -5883.6105    31.053198    3947.6442    11587.634    391.08916 
   79000    307.37201   -5884.1559     31.74503    3854.0009    11672.005   -80.640892 
   79100    290.64897   -5884.5143    30.017893    3451.6506    11466.782   -876.87221 
   79200    287.71353   -5884.7101    29.714724     3195.709    11383.858   -1560.9647 
   79300    303.91274   -5884.7684     31.38776    3155.6327    11482.906   -2054.1497 
   79400    306.98151   -5884.6257    31.704699    2960.1949    11388.336   -2642.5882 
   79500    297.52712   -5884.3439     30.72826    2609.6146    11051.054   -3268.2607 
   79600    294.03483   -5884.0861    30.367581     2297.994     10599.14   -3715.3155 
   79700    310.93926   -5883.9361    32.113451    2183.9827    10141.614   -3811.6661 
   79800    324.98082   -5883.7806    33.563648    2006.5568    9457.6527   -3798.8113 
   79900    302.45418   -5883.5443    31.237121    1367.9381    8260.4902   -4122.2707 
   80000    291.75788   -5883.3725     30.13242     824.8796    7109.2244    -4348.506 
   80100    298.14631   -5883.3263    30.792209    431.04011     6140.506   -4520.3887 
   80200    311.11424   -5883.3058    32.131523    85.366714    5341.6578   -4792.8757 
   80300    303.00508   -5883.1531    31.294018   -502.45806    4475.6925   -5451.7737 
   80400    280.07887    -5882.887    28.926225   -1240.0411     3627.604   -6403.1094 
   80500    288.20895   -5882.6172     29.76589   -1575.5883    3304.2201   -7093.3186 
   80600    298.16807   -5882.2762    30.794457   -1831.5779    3164.8889   -7773.7941 
   80700    302.19812   -5881.7849    31.210676   -2067.8004     3115.455   -8444.3477 
   80800    301.29387   -5881.1516    31.117286   -2261.9216    3138.7457   -9037.6996 
   80900    303.14363   -5880.4661    31.308327   -2335.5183    3274.6764   -9451.0581 
   81000    312.49853   -5879.8221     32.27449   -2252.8625      3532.65   -9639.7714 
   81100    304.48228   -5879.3046    31.446582   -2343.4714    3577.2012   -9908.1918 
   81200    285.10499   -5879.1004    29.445317   -2591.1697    3390.8793   -10244.378 
   81300    294.09668   -5879.3692    30.373969   -2557.2391    3370.4093   -10265.327 
   81400    315.09038   -5880.0131    32.542174   -2419.3102    3372.4658   -10149.122 
   81500     313.0087   -5880.7799     32.32718   -2555.4046    3075.2003   -10251.432 
   81600    302.72792   -5881.5574    31.265393   -2763.7273    2633.9742   -10343.979 
   81700    298.02598   -5882.3445    30.779782   -2871.4248    2163.9871    -10213.82 
   81800     299.0014   -5883.1292    30.880523   -2866.5164    1690.6151   -9853.2201 
   81900    297.90528   -5883.8562    30.767316   -2826.1643    1228.6693   -9405.7096 
   82000    287.22546   -5884.4845    29.664317    -2834.241    816.14189   -9053.3561 
   82100    290.36974   -5885.0447    29.989054   -2617.1981    787.52039   -8626.1503 
   82200    316.88024   -5885.5097    32.727029   -2052.2341    1280.7768   -8040.0918 
   82300    313.68999   -5885.7455    32.397543   -1765.1578     1721.043   -7840.3461 
   82400    301.43794   -5885.8352    31.132165   -1547.5757    2271.5118   -7819.0024 
   82500    297.30986   -5885.9808    30.705822   -1246.4626    3007.8307   -7809.2669 
   82600    299.50895   -5886.2901    30.932941   -916.77381     3801.752    -7800.393 
   82700    304.14834   -5886.7469    31.412092   -610.55651    4538.6444   -7769.7998 
   82800    298.06498   -5887.2387     30.78381   -469.73974    5062.6348   -7794.6927 
   82900    290.42558   -5887.6664    29.994822   -364.11716    5469.5292   -7742.8945 
   83000    298.32022   -5887.9449    30.810171   -64.846066     5963.739   -7418.6092 
   83100     315.1909   -5887.9134    32.552555    384.65221    6523.7628   -6856.8378 
   83200    304.18038   -5887.4438    31.415402    562.56187    6769.9466   -6400.4192 
   83300    278.09322   -5886.7396     28.72115    578.56905    6776.3483   -5969.6409 
   83400    286.38188   -5886.1077    29.577193    963.94177    7013.1776   -5170.8622 
   83500    298.42265   -5885.6444     30.82075    1321.6264    7161.9745   -4382.8758 
   83600    305.52627   -5885.3764    31.554403    1538.8175    7170.6124    -3750.144 
   83700    303.76385   -5885.3027    31.372383    1572.4595    7045.9972   -3354.1849 
   83800    291.47027   -5885.4099    30.102716    1414.9148    6827.8596   -3250.4677 
   83900    286.86109   -5885.6735    29.626685    1302.5478    6755.2071   -3261.6554 
   84000     310.8779   -5885.9633    32.107114     1521.143    7086.7109   -3105.6023 
   84100    313.72948    -5885.977    32.401621    1533.6666    7313.9647    -3211.448 
   84200     296.2171   -5885.6119    30.592963    1375.8769    7433.8739   -3507.6695 
   84300    290.74455   -5885.0386    30.027765    1401.9073    7755.9092   -3671.0793 
   84400    297.75035   -5884.4136    30.751315    1577.9929    8231.6066   -3739.5929 
   84500    300.13297   -5883.8346    30.997389    1670.9307    8603.7986    -3901.421 
   84600    298.55316   -5883.4133    30.834229    1661.8699    8798.8934   -4131.4432 
   84700    300.63681   -5883.2372    31.049426     1622.848     8840.179   -4333.7798 
   84800    307.32774   -5883.3112    31.740457    1563.7985    8716.4637    -4480.627 
   84900    311.14603   -5883.5585    32.134806     1411.164    8364.5413   -4630.0404 
[...]
 4333100    295.94779    -5882.575    30.565149   -1378.2949    -2390.585   -1845.7215 
 4333200    291.15333   -5883.0755    30.069983   -1213.8181   -1128.9126   -2491.6565 
 4333300    294.21555   -5883.7062    30.386245   -956.92631    172.31185   -2942.4918 
 4333400    309.01383   -5884.2362    31.914594   -505.88712     1461.749   -2882.6657 
 4333500    309.06753   -5884.3551    31.920141    -111.6082    2320.0596   -2493.9796 
 4333600    287.09394    -5884.022    29.650734    139.29499    2622.6343    -1876.746 
 4333700    287.13758   -5883.5149    29.655241     701.2711    2961.0954   -528.08775 
 4333800    296.07754   -5882.9461    30.578549    1379.1277    3169.8838    1222.1642 
 4333900    297.86585   -5882.3495    30.763244    1960.3575    3095.8183    2996.8568 
 4334000    301.74119   -5881.8106    31.163484    2526.4429    2951.1789    4775.5139 
 4334100    305.66064   -5881.3782    31.568281     3033.097    2818.0811    6361.4902 
 4334200    306.63254   -5881.0856    31.668658    3429.5194    2791.1873    7532.3234 
 4334300    297.86839   -5881.0006    30.763507    3614.1651    2855.3608    8052.0834 
 4334400    290.93311   -5881.2491    30.047239    3695.8533    3147.3008     8039.667 
 4334500    302.24846   -5881.8536    31.215875    3866.6201    3818.8558    7806.6201 
 4334600    317.10356   -5882.5743    32.750093     4003.905    4630.9115    7311.5729 
 4334700    298.94454   -5883.1125     30.87465    3738.9692    5034.4016    6226.9086 
 4334800    294.30359   -5883.5089    30.395338    3629.6428    5614.3987    5327.7904 
 4334900    301.57792    -5883.807    31.146623    3653.7027    6319.8004    4610.0973 
 4335000    307.07762   -5883.9393    31.714625    3665.9119     6923.373    3955.4087 
 4335100    296.41646   -5883.9157    30.613552    3490.6405    7142.4522    3223.8803 
 4335200    284.45137   -5883.9488    29.377812    3253.7449    7069.0602    2617.7159 
 4335300    301.59563   -5884.2204    31.148451    3274.4594    7031.7135     2566.085 
 4335400    312.98409   -5884.5735    32.324639    3160.9333    6505.4159    2658.2337 
 4335500    304.44394   -5884.8167    31.442622    2777.9395    5344.3443    2726.9029 
 4335600    297.21762   -5884.9474    30.696296    2381.7691    3942.5898    2996.4098 
 4335700    296.53291   -5884.9681     30.62558    2041.2882    2526.8261    3407.7566 
 4335800    304.86016   -5884.8176    31.485609    1809.9807    1333.2646    3863.1833 
 4335900    319.15239   -5884.3522    32.961694    1693.9075    510.43025    4246.3161 
 4336000    298.25719    -5883.503    30.803662    1223.6878   -433.27893     3926.316 
 4336100    281.12534   -5882.6244    29.034304    794.87108   -1012.0598    3347.1918 
 4336200    288.01658   -5882.0184    29.746023    584.83476   -1063.1136    2747.6718 
 4336300    299.34491   -5881.7141       30.916    351.38516   -915.05206    1871.2522 
 4336400    307.07959   -5881.6257    31.714828    17.525832   -686.75255    656.37448 
 4336500    302.34297   -5881.6635    31.225636   -500.18833   -557.56308   -916.10385 
 4336600    288.27064   -5881.8446    29.772262   -1160.9446   -633.86761   -2647.8225 
 4336700    291.65823   -5882.2419    30.122128   -1650.5123   -679.65424    -4016.576 
 4336800    320.55519   -5882.7175    33.106574   -1833.4138    -575.7286   -4791.6252 
 4336900    311.79573   -5882.9249    32.201907   -2378.2293   -1128.6093   -5780.3403 
 4337000     297.5822   -5882.9127    30.733949   -2896.8047   -1880.6088      -6485.1 
 4337100     295.1395   -5882.9079     30.48167   -3224.7699   -2663.0565   -6678.8932 
 4337200    303.74582   -5882.9943    31.370521   -3384.2003   -3538.3761   -6355.6521 
 4337300    314.93789    -5883.078    32.526425   -3453.2061   -4596.5922   -5609.4894 
 4337400    300.13257   -5883.0262    30.997349   -3744.7045   -6092.1065   -4944.5814 
 4337500    286.51349   -5882.9808    29.590785    -3965.598   -7426.5183   -4244.0212 
 4337600    298.96843   -5883.0902    30.877117   -3850.3661   -8077.8379   -3390.3111 
 4337700    308.52249   -5883.2132     31.86385   -3717.8988   -8316.6684   -2883.3058 
 4337800    301.63801   -5883.2038    31.152829   -3706.5081   -8281.4341   -2909.1124 
 4337900    295.04633   -5883.1131    30.472047   -3636.2975   -7788.5304   -3217.2386 
 4338000    296.67925   -5883.0392    30.640694   -3440.4065   -6840.3306   -3651.1769 
 4338100      300.355   -5883.0214    31.020321   -3204.4717    -5657.816    -4196.617 
 4338200    303.41952   -5883.0713    31.336821    -2961.669   -4411.8988    -4757.825 
 4338300    299.81986   -5883.1794    30.965052   -2779.2074   -3289.4777   -5303.5937 
 4338400    287.02331   -5883.3503    29.643439    -2686.879   -2407.4691   -5789.5218 
 4338500    293.16837   -5883.6008    30.278094    -2353.562    -1443.036   -5751.7972 
 4338600    312.36032   -5883.7581    32.260216   -1818.0512   -478.79273   -5192.7701 
 4338700    305.51163   -5883.6091    31.552891     -1509.92    -57.79222   -4598.0693 
 4338800    294.74939   -5883.3024     30.44138   -1204.3128    140.35902   -3766.0928 
 4338900    295.63778   -5883.0815    30.533132    -776.0558    328.37592    -2630.558 
 4339000    301.36633   -5883.0164     31.12477   -329.09221    407.19307   -1353.3957 
 4339100    303.63906   -5883.0429    31.359495     48.31354    285.23428   -57.176307 
 4339200    295.20444    -5883.088    30.488377    288.34465   -65.343151    1121.3665 
 4339300    278.02527   -5883.2105    28.714132    410.89296   -496.68235    2076.6962 
 4339400     296.4699    -5883.509    30.619072    934.74129   -257.75235     3326.158 
 4339500    307.92607   -5883.7465    31.802252      1406.19    218.00676    4209.4659 
 4339600    300.50533   -5883.7147    31.035847    1728.9835    893.52996    4540.3883 
 4339700     289.8948   -5883.4799    29.940003    2067.1929    1941.9246    4543.0727 
 4339800    300.20161   -5883.2017    31.004478    2659.7785    3557.8478    4593.3502 
 4339900    313.59181   -5882.8453    32.387403    3282.9888      5350.21    4526.4382 
 4340000    299.00672   -5882.4113    30.881072    3540.8935    6656.9107    4029.0197 
 4340100    290.81053    -5882.173    30.034579    3770.5555     7724.613    3652.3745 
 4340200    304.42945    -5882.283    31.441125    4118.1346    8629.8169    3658.0444 
 4340300    322.15844   -5882.5688    33.272155    4408.7958    9126.8053    3882.3071 
 4340400    297.03531   -5882.7738    30.677467    4137.0788    8600.6848    3744.3415 
 4340500    295.21577   -5883.0136    30.489547    4078.2333    8029.8367     4132.477 
 4340600    304.16949   -5883.2971    31.414276    4084.8593    7299.0892    4807.2863 
 4340700    306.28354   -5883.4918    31.632614    3977.7134    6284.7704    5472.0266 
 4340800    294.03311   -5883.5782    30.367403    3672.5973    4985.8443    5927.7392 
 4340900    289.53274   -5883.7048    29.902611     3404.199    3767.3437    6365.4885 
 4341000    309.49821   -5883.9104    31.964621    3366.3561    2917.5752    6962.7393 
 4341100    315.89478    -5883.958    32.625251    3156.0537    2030.0919     7173.634 
 4341200    300.84681   -5883.7598    31.071114    2702.4614    1169.6666    6772.2903 
 4341300    295.33129   -5883.5098    30.501478    2340.6468    861.62361    6030.4823 
 4341400    299.36394   -5883.3191    30.917965    2050.6591    1085.6159    4913.7248 
 4341500    309.58097   -5883.1479    31.973168    1803.2538    1694.6983    3502.2697 
 4341600    310.93457    -5882.886    32.112966    1443.6863    2321.9258     1799.378 
 4341700    288.46911   -5882.5811     29.79276     786.7225    2537.0939   -212.17779 
 4341800    287.49499    -5882.496    29.692154    327.50015    2731.4669   -1748.7947 
 4341900    305.87838   -5882.6318     31.59077    49.969897    2794.9776   -2731.8966 
 4342000    306.66347   -5882.7287    31.671852   -420.05125    2241.7914    -3552.769 
 4342100    297.23395   -5882.6794    30.697982   -958.57399    1223.1633   -4053.8279 
 4342200    293.89749   -5882.5461    30.353396   -1376.5901    45.010219   -4086.7027 
 4342300    309.41147   -5882.3773    31.955663   -1529.5177   -998.77312   -3596.9409 
 4342400    321.14977   -5882.0622     33.16798   -1666.2877   -2122.5081   -2965.4358 
 4342500    301.24004   -5881.6442    31.111727   -2138.1472   -3631.8166   -2743.2272 
 4342600    293.51819   -5881.4787    30.314223   -2504.8762   -4901.4811   -2515.4445 
 4342700    302.02718   -5881.7355    31.193021   -2759.8097   -5897.1585   -2314.1719 
 4342800     315.2108    -5882.285     32.55461   -3013.3105   -6696.1076   -2320.5866 
 4342900    299.49179   -5882.8549     30.93117   -3600.3922   -7646.9559    -2984.614 
 4343000    293.31455   -5883.4072    30.293191   -4036.3754   -8154.1252   -3712.8845 
 4343100    302.01784   -5883.9173    31.192057    -4235.569   -8084.4593   -4418.5634 
 4343200    307.47676   -5884.2149    31.755848    -4360.154   -7596.2651   -5320.9829 
 4343300    292.52153   -5884.2259    30.211289   -4584.5878   -6966.3582   -6559.5608 
 4343400    284.15854   -5884.1435    29.347569   -4621.0775   -6016.8894   -7610.3261 
 4343500    302.12696    -5884.103    31.203326   -4263.8223    -4657.548   -8068.5976 
 4343600     305.0364   -5883.9741     31.50381   -3987.7041   -3625.9079   -8353.2904 
 4343700    297.70576   -5883.7364     30.74671   -3747.1798   -2990.7535   -8285.3016 
 4343800     294.3049   -5883.5082    30.395473   -3417.3276   -2634.2981   -7693.8999 
 4343900    309.24112   -5883.3594    31.938069    -2857.906   -2361.4745    -6449.302 
 4344000    315.10978   -5883.1743    32.544177   -2387.7464   -2492.7415   -4995.0943 
 4344100    295.23607   -5882.9374    30.491643   -2216.7635   -3136.5963   -3725.3238 
 4344200    292.49615   -5882.8521    30.208667   -1879.9424   -3559.0225    -2277.694 
 4344300    300.69451   -5882.9415    31.055385    -1454.369     -3736.45    -862.3163 
 4344400    305.79552   -5883.0679    31.582211   -1069.5101   -3751.3758    308.03076 
 4344500    296.56846   -5883.1317    30.629251   -824.94334   -3694.7733    1096.8692 
 4344600    279.85747   -5883.2203    28.903359    -646.2536   -3456.7616    1566.5518 
 4344700    296.07882   -5883.4458    30.578682   -71.867802   -2462.9191    2245.4239 
 4344800    305.81568   -5883.5801    31.584294    468.47234   -1210.5173    2605.6014 
 4344900    299.61029   -5883.4324    30.943408    890.14935    146.34982    2596.3707 
 4345000     292.1112   -5883.0914    30.168911    1333.1225    1682.1865    2464.6893 
 4345100    302.22133   -5882.7312    31.213073    1971.1297    3525.5163      2484.71 
 4345200    312.96237   -5882.3553    32.322396    2586.9625    5318.7897    2479.8586 
 4345300    300.01637   -5881.9686    30.985348    2877.4654    6515.1942     2253.158 
 4345400    293.11028   -5881.7607    30.272095    3152.9245    7378.0233    2278.5981 
 4345500    298.63573   -5881.8197    30.842756    3469.6361    7958.2556    2634.3718 
 4345600    302.93367   -5882.0599    31.286642    3685.0541    8108.9441    3127.3966 
 4345700    302.46904    -5882.367    31.238657    3787.5194    7853.2251    3715.0477 
 4345800    297.42516   -5882.6773     30.71773    3798.9823    7254.5554      4392.46 
 4345900    287.18871   -5882.9823    29.660521    3716.9705    6344.6118    5122.1612 
 4346000     281.8509   -5883.3158    29.109239    3654.2161    5332.3997    5967.9515 
 4346100    305.91484   -5883.6245    31.594535     3913.734    4730.5561    7162.8378 
 4346200      309.334   -5883.6352    31.947662    3950.6463    4053.1466    7873.6028 
 4346300    295.08696   -5883.3721    30.476244    3793.6222    3509.4333    7968.9991 
 4346400    291.14869   -5883.1539    30.069504    3709.7759    3459.5497    7728.8915 
 4346500    312.23153   -5883.1413    32.246915    3842.2409    4025.0274    7371.2806 
 4346600    316.39373   -5883.1418    32.676782      3727.08    4548.1929    6443.0685 
 4346700    302.66612   -5883.0242     31.25901    3372.7907    4902.5765    5095.6509 
 4346800    293.57004   -5882.8841    30.319578    3022.4076    5221.1826    3768.8227 
 4346900    297.39853   -5882.8261     30.71498    2751.0147    5485.8638    2650.7438 
 4347000    313.03896   -5882.8214    32.330306    2555.0173    5669.6866     1764.354 
 4347100    308.69412   -5882.7135    31.881575     2094.549    5343.3951    739.23795 
 4347200    284.15216   -5882.5588    29.346909    1367.5741    4434.3517   -353.47824 
 4347300    292.82289   -5882.5591    30.242413    984.37322    3663.6095   -777.55924 
 4347400    305.71963   -5882.6155    31.574374    632.40467    2684.9886   -923.46912 
 4347500    304.41436    -5882.602    31.439567    133.51098    1393.4263   -1098.2766 
 4347600     292.2766   -5882.6049    30.185993   -479.60739   -50.870589   -1385.5973 
 4347700    281.45725   -5882.8397    29.068582   -1104.8327   -1485.3474   -1717.4808 
 4347800    297.68283   -5883.4148    30.744342   -1459.9106   -2592.4091   -1737.9403 
 4347900    317.85112   -5884.0638      32.8273   -1769.3697   -3646.1318   -1699.8396 
 4348000    303.89292   -5884.4132    31.385713   -2413.9986   -4986.9115    -2172.834 
 4348100    294.61093   -5884.5217     30.42708   -2939.4031   -5914.3828   -2752.2635 
 4348200    297.52431   -5884.5375    30.727971   -3277.5971   -6303.5418   -3401.0481 
 4348300    307.10425   -5884.4645    31.717375   -3480.6061   -6258.5485   -4134.3054 
 4348400    314.18481   -5884.2067    32.448648   -3620.5923   -5941.6253   -4949.1542 
 4348500    297.79516   -5883.7262    30.755943   -3926.1107   -5714.7989   -6026.2228 
 4348600     283.0103   -5883.2514     29.22898   -4139.8825   -5325.8416   -6997.4037 
 4348700    297.47374   -5882.9669    30.722747   -3971.6196   -4488.3683   -7458.2952 
 4348800     304.3446   -5882.7699    31.432362   -3846.0945    -3833.778   -7799.3635 
 4348900    300.32252   -5882.5934    31.016966   -3801.1173   -3527.1597   -7947.2008 
 4349000    294.73535   -5882.4781     30.43993   -3748.7935   -3516.1275   -7755.3619 
 4349100    297.10536    -5882.467    30.684702   -3596.6161    -3669.516   -7145.5367 
 4349200    311.34927   -5882.5065    32.155797   -3292.3905   -3861.7697   -6119.1162 
 4349300    307.07777   -5882.4656    31.714641   -3172.0657   -4410.2863   -5159.9822 
 4349400    289.53045   -5882.4329    29.902374   -3186.7771    -5144.736   -4326.9353 
 4349500    294.02714   -5882.6115    30.366786   -2951.7828   -5503.1004   -3266.2085 
 4349600    305.64923   -5882.9493    31.567103   -2631.5056   -5600.6702   -2253.5479 
 4349700    305.69914   -5883.2589    31.572258   -2408.2727   -5573.9874   -1582.6108 
 4349800    300.75074   -5883.4659    31.061192   -2188.2096   -5283.2056    -1163.503 
 4349900    296.57317   -5883.6017    30.629737   -1910.7075   -4678.3619   -902.23793 
 4350000    297.83833    -5883.714    30.760402   -1530.9228   -3743.4007   -708.57454 
 4350100    311.02468   -5883.7617    32.122273   -962.68584   -2430.5373   -417.09634 
 4350200    310.12798   -5883.5682    32.029663   -481.17836   -1140.4968    -289.5906 
 4350300    288.76316   -5883.1344    29.823128   -168.40738   -72.783261   -327.54288 
 4350400    288.35086   -5882.7027    29.780547    412.16508    1255.4659    28.287756 
 4350500    300.65962   -5882.3525    31.051782    1136.5357     2686.728    623.67226 
 4350600    300.94834   -5882.0882      31.0816    1694.8851    3777.9524    1153.9427 
 4350700    300.29793   -5882.0253    31.014427    2180.0306    4574.6088    1786.6192 
 4350800    300.77866   -5882.2349    31.064076    2584.7357    5060.9013      2507.38 
 4350900    296.66982   -5882.6697     30.63972    2834.4785    5172.2638    3194.9542 
 4351000    292.24431   -5883.2352    30.182658    2990.2275    5001.7666    3898.9158 
 4351100    298.93884   -5883.8185    30.874062    3212.4624    4776.9603    4782.5902 
 4351200    311.84976   -5884.2235    32.207486    3491.2957    4565.0593    5773.0221 
 4351300    304.08921   -5884.2594    31.405986    3556.2467     4139.307    6459.1539 
 4351400    285.72069   -5884.0341    29.508906    3514.6692    3721.6127     6875.413 
 4351500    293.17656   -5883.7936    30.278939    3753.4746     3841.073    7414.9111 
 4351600     302.6666   -5883.5495     31.25906    3982.1941    4206.3554    7661.0153 
 4351700    300.95678    -5883.305    31.082472    4036.3615    4635.1019    7395.7869 
 4351800    298.47568   -5883.1861    30.826226    4007.7347    5157.0603    6801.2851 
 4351900    300.79208   -5883.2841    31.065462    3937.8468    5704.3092     6037.548 
 4352000    307.61244   -5883.5333    31.769861    3833.9861    6197.1161    5204.7094 
 4352100    301.53348    -5883.739    31.142033    3528.8837    6385.7069    4158.2596 
 4352200    289.62207   -5883.8194    29.911836    3129.4667    6332.0107    3099.6222 
 4352300    295.31783   -5883.8191    30.500088    2916.4616    6308.0804    2437.7322 
 4352400    312.43036   -5883.6825     32.26745    2838.9976    6225.1876    2147.8877 
 4352500      305.372   -5883.3431    31.538471    2494.9741    5598.1131    1754.7033 
 4352600    296.71255   -5882.9964    30.644133    2117.5246    4718.6528    1524.5165 
 4352700    297.53667    -5882.839    30.729247    1794.5111    3708.0423     1535.225 
 4352800    304.51234    -5882.888    31.449686     1476.154    2546.2209    1684.8266 
 4352900    308.99042   -5883.0199    31.912177    1079.7034    1220.4937    1795.0751 
 4353000    294.48729    -5883.124     30.41431    429.97571    -355.5753    1538.8831 
 4353100    288.32135   -5883.2705    29.777499   -154.99794   -1696.8324    1193.9083 
 4353200    303.71696   -5883.4537     31.36754    -506.3278   -2569.4035    940.40398 
 4353300    310.74681   -5883.4481    32.093575   -922.30837   -3305.5411    413.45798 
 4353400    295.94356   -5883.1786    30.564712   -1532.5239   -4008.8004   -586.27617 
 4353500    285.75824   -5882.9016    29.512784   -2061.3414   -4330.9612   -1752.5037 
 4353600    314.08613   -5882.8302    32.438456   -2139.1841   -3867.0027   -2603.4865 
 4353700    312.09224   -5882.8252     32.23253   -2550.7445   -3660.6738    -3981.754 
 4353800     294.1398   -5882.9222    30.378422   -3122.0598   -3649.5632   -5531.2049 
 4353900    293.96653    -5883.261    30.360527   -3476.1571   -3510.3796   -6670.1389 
 4354000    307.11727   -5883.7208     31.71872   -3638.9674   -3367.9846   -7330.1785 
 4354100    310.70497   -5883.9787    32.089253   -3814.0677   -3524.9321   -7692.4879 
 4354200     287.2081   -5883.8762    29.662524   -4179.1981    -4210.937   -7962.0347 
 4354300    287.59226   -5883.6111    29.702199   -4170.2599   -4688.3222   -7500.0453 
 4354400     299.5157   -5883.2543    30.933639   -3953.4588   -5068.4036   -6608.7657 
 4354500    300.69816   -5882.8027    31.055762   -3801.2251   -5557.6312   -5744.8132 
 4354600    299.34127   -5882.3819    30.915624    -3650.361   -5971.8495     -4939.25 
 4354700    304.67347   -5882.1357    31.466327    -3427.473   -6198.0271   -4133.2449 
 4354800    318.23938   -5882.0673    32.867399   -3117.3306    -6226.555   -3298.2739 
 4354900    303.08454   -5882.0586    31.302224   -3135.2499    -6515.682   -2965.3063 
 4355000    291.51238   -5882.1843    30.107065   -3105.5808   -6548.2171   -2754.1713 
 4355100    299.67126   -5882.4582    30.949705   -2833.5746   -6056.3959   -2468.2241 
 4355200    308.09873   -5882.6564    31.820085   -2499.6319   -5239.6787    -2326.356 
 4355300    296.65531     -5882.59    30.638221   -2302.0319    -4346.328   -2545.9716 
 4355400     279.7222   -5882.4008    28.889389   -2101.7538   -3271.9861   -2907.7309 
