296
Atoms. Timestep: 550
1 17.5285 0.122983 0
1 18.3448 1.35058 0
1 19.6725 1.26339 0
1 13.5327 0.140533 0
1 14.3346 1.46234 0
1 15.6658 1.40457 0
1 16.4773 2.71401 0
1 17.7771 2.65983 0
1 18.5903 3.87013 0
1 19.9366 3.79186 0
1 9.60541 0.152994 0
1 10.3552 1.34429 0
1 11.6933 1.38388 0
1 12.393 2.66753 0
1 13.6947 2.68069 0
1 14.4041 3.90217 0
1 15.8296 3.92506 0
1 16.593 5.16133 0
1 18.0003 5.12646 0
1 18.771 6.36621 0
1 20.1605 6.35874 0
1 4.95311 0.675755 0
1 6.21414 0.626057 0
1 6.96641 1.87672 0
1 8.34276 1.93175 0
1 9.08447 3.14137 0
1 10.3699 3.4538 0
1 11.7264 3.90184 0
1 12.4608 5.23272 0
1 13.8362 5.18025 0
1 14.5617 6.40809 0
1 15.9413 6.38141 0
1 16.7405 7.68305 0
1 18.113 7.59717 0
1 18.9115 8.89004 0
1 20.3163 8.87747 0
1 0.19064 36.6992 0
1 1.05048 1.01422 0
1 2.33241 0.885584 0
1 3.16082 2.08558 0
1 4.44306 1.92589 0
1 5.1506 3.18047 0
1 6.43373 3.12051 0
1 7.14285 4.34009 0
1 8.46804 4.42667 0
1 9.50943 5.41758 0
1 10.3653 6.54874 0
1 11.7761 6.47622 0
1 12.5134 7.64907 0
1 13.9004 7.70861 0
1 14.6712 8.93597 0
1 16.1044 8.91565 0
1 16.8179 10.098 0
1 18.2455 10.1338 0
1 18.9701 11.3723 0
1 20.3859 11.3113 0
1 20.4732 2.46611 0
1 0.533678 2.35037 0
1 1.37961 3.57957 0
1 2.72896 3.47545 0
1 3.63358 4.88375 0
1 5.02734 4.72855 0
1 6.09616 6.17382 0
1 7.6116 6.39704 0
1 8.34385 7.66605 0
1 9.72738 7.72155 0
1 10.4418 8.96164 0
1 11.8201 8.93902 0
1 12.5884 10.1546 0
1 13.9911 10.1549 0
1 14.7415 11.4046 0
1 16.1476 11.3465 0
1 16.8837 12.619 0
1 18.3106 12.6402 0
1 19.0565 13.8516 0
1 20.4947 13.8334 0
1 20.7795 5.02417 0
1 0.835188 4.91138 0
1 1.69872 6.24065 0
1 3.10122 6.12801 0
1 3.9565 7.4873 0
1 5.42641 7.4835 0
1 6.21775 8.79923 0
1 7.64816 8.87813 0
1 8.32767 10.1297 0
1 9.70912 10.1777 0
1 10.4377 11.4093 0
1 11.8812 11.4069 0
1 12.6914 12.6437 0
1 14.0522 12.6694 0
1 14.7861 13.8994 0
1 16.1865 13.8836 0
1 16.9387 15.0782 0
1 18.3407 15.0576 0
1 19.0583 16.3643 0
1 20.4851 16.3085 0
1 20.9581 7.5774 0
1 1.07201 7.52221 0
1 1.90677 8.789 0
1 3.3447 8.77845 0
1 4.09049 10.0303 0
1 5.50561 10.0396 0
1 6.26379 11.366 0
1 7.63482 11.3531 0
1 8.35875 12.6345 0
1 9.77589 12.6669 0
1 10.523 13.8641 0
1 11.9225 13.8312 0
1 12.6791 15.105 0
1 14.0687 15.1088 0
1 14.7994 16.3587 0
1 16.2544 16.3471 0
1 16.957 17.5713 0
1 18.3409 17.5813 0
1 19.088 18.7963 0
1 20.5188 18.7515 0
1 21.0684 10.096 0
1 1.24354 10.0784 0
1 2.01319 11.2883 0
1 3.41652 11.3049 0
1 4.15052 12.5928 0
1 5.5548 12.5768 0
1 6.28088 13.8255 0
1 7.65452 13.8097 0
1 8.42898 15.0839 0
1 9.83354 15.101 0
1 10.5713 16.3008 0
1 11.9545 16.3281 0
1 12.6137 17.5416 0
1 14.1019 17.5955 0
1 14.8098 18.8374 0
1 16.2064 18.8296 0
1 16.9569 20.0677 0
1 18.386 20.0125 0
1 19.0835 21.3243 0
1 20.5436 21.3112 0
1 21.1681 12.6064 0
1 1.3154 12.5787 0
1 2.02483 13.8368 0
1 3.42126 13.8632 0
1 4.13521 15.0356 0
1 5.63463 15.0377 0
1 6.29654 16.3693 0
1 7.69439 16.3347 0
1 8.35988 17.5237 0
1 9.85793 17.547 0
1 10.5662 18.7859 0
1 11.9468 18.7476 0
1 12.6681 20.005 0
1 14.1076 20.0474 0
1 14.8142 21.306 0
1 16.2959 21.2919 0
1 16.9459 22.5293 0
1 18.3768 22.5597 0
1 19.1134 23.8163 0
1 20.528 23.7787 0
1 21.1876 15.0738 0
1 1.31993 15.105 0
1 2.04885 16.3579 0
1 3.44488 16.3211 0
1 4.20499 17.5293 0
1 5.60929 17.5453 0
1 6.30645 18.7968 0
1 7.67306 18.7788 0
1 8.40895 20.0027 0
1 9.89481 19.9821 0
1 10.5713 21.2589 0
1 11.979 21.242 0
1 12.6973 22.4764 0
1 14.1152 22.515 0
1 14.8586 23.7603 0
1 16.293 23.7603 0
1 17.0351 24.988 0
1 18.4264 24.9935 0
1 19.1088 26.25 0
1 20.5891 26.2684 0
1 21.2 17.5453 0
1 1.32709 17.5788 0
1 2.04336 18.8051 0
1 3.46956 18.7555 0
1 4.1351 20.0023 0
1 5.59056 20.0249 0
1 6.29512 21.2232 0
1 7.72832 21.2163 0
1 8.45055 22.446 0
1 9.84953 22.4834 0
1 10.5999 23.7617 0
1 12.0169 23.6938 0
1 12.7448 24.9614 0
1 14.1825 25.0518 0
1 14.9049 26.2735 0
1 16.3366 26.2455 0
1 17.1118 27.5038 0
1 18.4561 27.4614 0
1 19.2984 28.828 0
1 20.7028 28.7817 0
1 21.2279 20.0268 0
1 1.34573 20.049 0
1 2.0888 21.2558 0
1 3.42725 21.2365 0
1 4.17968 22.5199 0
1 5.62178 22.482 0
1 6.35452 23.7363 0
1 7.75046 23.707 0
1 8.47756 24.9379 0
1 9.90648 24.9534 0
1 10.6297 26.1747 0
1 12.0458 26.2161 0
1 12.8371 27.4303 0
1 14.2517 27.4704 0
1 14.9698 28.7247 0
1 16.3795 28.7214 0
1 17.1489 30.0059 0
1 18.6082 30.0499 0
1 19.3651 31.3639 0
1 20.8165 31.3622 0
1 21.2736 22.5049 0
1 1.37703 22.5103 0
1 2.07632 23.7736 0
1 3.48813 23.7661 0
1 4.24066 24.9472 0
1 5.68064 24.9545 0
1 6.34598 26.1691 0
1 7.80618 26.1653 0
1 8.59335 27.3981 0
1 9.9872 27.4006 0
1 10.7272 28.5793 0
1 12.1653 28.6444 0
1 12.8734 29.9071 0
1 14.2993 29.971 0
1 15.1624 31.1757 0
1 16.5223 31.2367 0
1 17.2974 32.4957 0
1 18.7129 32.5995 0
1 19.7237 34.1013 0
1 21.1123 34.0156 0
1 21.2533 25.0181 0
1 1.36639 24.9771 0
1 2.09903 26.2054 0
1 3.50773 26.2078 0
1 4.24156 27.4878 0
1 5.63411 27.4312 0
1 6.39432 28.682 0
1 7.89425 28.6533 0
1 8.66228 29.9335 0
1 10.0861 29.8643 0
1 11.031 30.9456 0
1 11.9275 32.0951 0
1 13.2761 32.1049 0
1 14.002 33.2722 0
1 15.3398 33.2634 0
1 16.1057 34.5226 0
1 17.455 34.622 0
1 18.1143 35.7767 0
1 19.4078 35.595 0
1 20.2107 36.859 0
1 0.0661378 27.5166 0
1 1.45114 27.5048 0
1 2.19694 28.7697 0
1 3.60309 28.7435 0
1 4.34029 29.9528 0
1 5.75354 29.9503 0
1 6.54917 31.1495 0
1 7.95332 31.1365 0
1 8.57395 32.4057 0
1 9.89956 32.6526 0
1 11.2556 33.3769 0
1 11.9871 34.5975 0
1 13.4036 34.5265 0
1 14.1515 35.8185 0
1 15.4637 35.7974 0
1 16.2128 0.159103 0
1 0.161024 30.0692 0
1 1.56225 30.073 0
1 2.35808 31.296 0
1 3.71865 31.2479 0
1 4.51953 32.4388 0
1 5.93633 32.4247 0
1 6.67252 33.6916 0
1 8.00428 33.6091 0
1 9.06489 34.7258 0
1 10.1148 35.8282 0
1 11.4269 35.7783 0
1 12.2498 0.149952 0
1 0.372461 32.6121 0
1 1.75285 32.5175 0
1 2.57247 33.8139 0
1 3.94594 33.7194 0
1 4.75264 34.9771 0
1 6.09724 34.9525 0
1 6.85898 36.2621 0
1 8.18093 36.7285 0
1 0.679496 35.319 0
1 2.00776 35.177 0
1 2.85913 36.3906 0
1 4.16688 36.3135 0
