296
Atoms. Timestep: 450
1 17.5381 0.123826 0
1 18.3512 1.34469 0
1 19.6739 1.25736 0
1 13.5367 0.143406 0
1 14.3373 1.45252 0
1 15.6636 1.40097 0
1 16.4689 2.69994 0
1 17.7702 2.64793 0
1 18.587 3.86393 0
1 19.934 3.79034 0
1 9.60278 0.154324 0
1 10.3537 1.35143 0
1 11.6878 1.39044 0
1 12.3953 2.67141 0
1 13.7023 2.6776 0
1 14.4147 3.91246 0
1 15.8283 3.92489 0
1 16.5949 5.16438 0
1 17.9933 5.12665 0
1 18.7734 6.36792 0
1 20.1597 6.35058 0
1 4.95517 0.676987 0
1 6.22055 0.623464 0
1 6.97533 1.87324 0
1 8.33705 1.92859 0
1 9.08447 3.14493 0
1 10.3796 3.45359 0
1 11.7351 3.9043 0
1 12.4535 5.2298 0
1 13.8367 5.18631 0
1 14.5626 6.41954 0
1 15.9476 6.39044 0
1 16.7403 7.68345 0
1 18.1176 7.6038 0
1 18.9118 8.88624 0
1 20.32 8.86989 0
1 0.192152 36.6876 0
1 1.04708 1.01025 0
1 2.32671 0.884983 0
1 3.15205 2.09193 0
1 4.43679 1.93797 0
1 5.15711 3.18658 0
1 6.44026 3.11435 0
1 7.14287 4.33555 0
1 8.46814 4.41607 0
1 9.50917 5.41264 0
1 10.3646 6.54893 0
1 11.7687 6.47772 0
1 12.5204 7.65762 0
1 13.9032 7.71135 0
1 14.6732 8.93309 0
1 16.0983 8.9163 0
1 16.8195 10.1103 0
1 18.2488 10.1346 0
1 18.9764 11.3725 0
1 20.3947 11.3175 0
1 20.475 2.46678 0
1 0.529291 2.35353 0
1 1.37641 3.58953 0
1 2.72403 3.47839 0
1 3.63795 4.87341 0
1 5.03777 4.72746 0
1 6.10247 6.17472 0
1 7.61482 6.39035 0
1 8.34049 7.66841 0
1 9.7271 7.72834 0
1 10.4485 8.96279 0
1 11.8262 8.94554 0
1 12.5942 10.1606 0
1 13.9922 10.159 0
1 14.7422 11.4062 0
1 16.1497 11.3589 0
1 16.8849 12.6207 0
1 18.3099 12.6362 0
1 19.0522 13.8534 0
1 20.4875 13.8341 0
1 20.7772 5.02511 0
1 0.835467 4.91998 0
1 1.70098 6.23993 0
1 3.10838 6.13047 0
1 3.95839 7.48354 0
1 5.42557 7.48129 0
1 6.21073 8.80292 0
1 7.63877 8.87943 0
1 8.33313 10.1342 0
1 9.72221 10.1783 0
1 10.4544 11.4062 0
1 11.8835 11.412 0
1 12.6853 12.6438 0
1 14.0462 12.6637 0
1 14.7873 13.8918 0
1 16.1879 13.8813 0
1 16.9343 15.0846 0
1 18.3387 15.0651 0
1 19.0605 16.3606 0
1 20.4858 16.3098 0
1 20.9649 7.57236 0
1 1.0754 7.52241 0
1 1.90341 8.78671 0
1 3.33987 8.77516 0
1 4.08551 10.0353 0
1 5.50166 10.0447 0
1 6.25966 11.3638 0
1 7.63825 11.3549 0
1 8.36738 12.6332 0
1 9.78381 12.6601 0
1 10.5265 13.8688 0
1 11.9219 13.8403 0
1 12.6785 15.1082 0
1 14.0695 15.1069 0
1 14.7979 16.3535 0
1 16.2444 16.3465 0
1 16.9531 17.5709 0
1 18.3411 17.5773 0
1 19.0851 18.8023 0
1 20.515 18.7625 0
1 21.0766 10.0942 0
1 1.23688 10.0767 0
1 2.00301 11.2936 0
1 3.40947 11.3089 0
1 4.14596 12.5893 0
1 5.55056 12.5747 0
1 6.27512 13.8326 0
1 7.66041 13.8193 0
1 8.42829 15.0864 0
1 9.82774 15.105 0
1 10.5665 16.3088 0
1 11.9571 16.3353 0
1 12.6277 17.5498 0
1 14.1038 17.591 0
1 14.8098 18.8298 0
1 16.2102 18.8224 0
1 16.9509 20.0646 0
1 18.3805 20.0158 0
1 19.0807 21.3129 0
1 20.5356 21.3037 0
1 21.1639 12.6052 0
1 1.30618 12.579 0
1 2.0205 13.8308 0
1 3.42236 13.8563 0
1 4.13993 15.0428 0
1 5.62511 15.046 0
1 6.28994 16.3626 0
1 7.69946 16.3309 0
1 8.37359 17.5329 0
1 9.8565 17.5543 0
1 10.5609 18.7943 0
1 11.957 18.7619 0
1 12.6716 20.0155 0
1 14.1089 20.0448 0
1 14.8133 21.2999 0
1 16.2875 21.2852 0
1 16.9428 22.526 0
1 18.381 22.547 0
1 19.1138 23.8048 0
1 20.5293 23.7696 0
1 21.186 15.0751 0
1 1.31797 15.097 0
1 2.04643 16.3452 0
1 3.44366 16.3198 0
1 4.19774 17.5358 0
1 5.60477 17.5455 0
1 6.30697 18.796 0
1 7.68702 18.7834 0
1 8.41299 20.0129 0
1 9.88728 19.9921 0
1 10.5674 21.263 0
1 11.9815 21.2479 0
1 12.6993 22.4842 0
1 14.1175 22.5131 0
1 14.8548 23.7532 0
1 16.2894 23.7607 0
1 17.0273 24.9933 0
1 18.4269 24.9929 0
1 19.1219 26.2538 0
1 20.5898 26.2631 0
1 21.1989 17.5509 0
1 1.32667 17.5717 0
1 2.04475 18.8036 0
1 3.46841 18.7625 0
1 4.14626 20.0096 0
1 5.59514 20.0262 0
1 6.29863 21.2314 0
1 7.72969 21.2289 0
1 8.45147 22.4566 0
1 9.85291 22.4851 0
1 10.5992 23.7563 0
1 12.0146 23.6991 0
1 12.7435 24.9596 0
1 14.1772 25.0353 0
1 14.9004 26.2616 0
1 16.3295 26.2437 0
1 17.1075 27.5072 0
1 18.4639 27.4691 0
1 19.2878 28.8178 0
1 20.6917 28.7749 0
1 21.2221 20.0282 0
1 1.34136 20.0464 0
1 2.08576 21.2576 0
1 3.43917 21.2431 0
1 4.18646 22.5159 0
1 5.62233 22.4836 0
1 6.34642 23.7354 0
1 7.75052 23.7112 0
1 8.47694 24.9417 0
1 9.90304 24.9498 0
1 10.6291 26.1703 0
1 12.0451 26.2139 0
1 12.8253 27.4283 0
1 14.2437 27.4681 0
1 14.9726 28.728 0
1 16.3838 28.7237 0
1 17.1589 30.0089 0
1 18.6064 30.043 0
1 19.3711 31.3602 0
1 20.8133 31.3553 0
1 21.2646 22.5052 0
1 1.36905 22.5096 0
1 2.07971 23.7669 0
1 3.48942 23.7591 0
1 4.23941 24.9511 0
1 5.67494 24.9583 0
1 6.35233 26.1749 0
1 7.80136 26.1709 0
1 8.57788 27.3977 0
1 9.97405 27.4033 0
1 10.714 28.5795 0
1 12.1473 28.6467 0
1 12.8743 29.9079 0
1 14.3036 29.9706 0
1 15.1631 31.1918 0
1 16.5275 31.2389 0
1 17.2991 32.4922 0
1 18.7203 32.6068 0
1 19.7254 34.1087 0
1 21.1058 34.0079 0
1 21.2576 25.0149 0
1 1.37389 24.9779 0
1 2.1068 26.2117 0
1 3.51805 26.2103 0
1 4.25456 27.4804 0
1 5.6535 27.4311 0
1 6.40595 28.6795 0
1 7.88383 28.6516 0
1 8.64887 29.9212 0
1 10.0732 29.852 0
1 11.0246 30.9363 0
1 11.9198 32.0894 0
1 13.2719 32.1012 0
1 14.0023 33.2796 0
1 15.3482 33.268 0
1 16.1096 34.526 0
1 17.4544 34.6203 0
1 18.1222 35.7717 0
1 19.4105 35.594 0
1 20.2139 36.8445 0
1 0.0593479 27.5117 0
1 1.45243 27.5008 0
1 2.19786 28.7585 0
1 3.60963 28.734 0
1 4.34987 29.948 0
1 5.76123 29.9446 0
1 6.54405 31.148 0
1 7.94712 31.133 0
1 8.5765 32.4 0
1 9.9054 32.6562 0
1 11.2585 33.3632 0
1 11.9949 34.5941 0
1 13.4066 34.5278 0
1 14.1549 35.8153 0
1 15.4713 35.7929 0
1 16.2242 0.157786 0
1 0.155335 30.0597 0
1 1.55793 30.0573 0
1 2.35467 31.2878 0
1 3.72164 31.2442 0
1 4.51846 32.4473 0
1 5.92984 32.4263 0
1 6.67271 33.6903 0
1 8.01501 33.604 0
1 9.0443 34.735 0
1 10.1064 35.8287 0
1 11.4347 35.7787 0
1 12.2501 0.154732 0
1 0.363581 32.6191 0
1 1.7452 32.5293 0
1 2.56997 33.8216 0
1 3.94081 33.7309 0
1 4.74999 34.9854 0
1 6.09769 34.9515 0
1 6.86253 36.2515 0
1 8.19242 36.7355 0
1 0.681311 35.3058 0
1 2.00645 35.1735 0
1 2.85852 36.395 0
1 4.16348 36.3181 0
