296
Atoms. Timestep: 500
1 17.5331 0.123429 0
1 18.3485 1.34731 0
1 19.6733 1.26026 0
1 13.5342 0.141965 0
1 14.3364 1.4575 0
1 15.6647 1.4023 0
1 16.4735 2.70695 0
1 17.7729 2.65373 0
1 18.5887 3.8668 0
1 19.9351 3.7912 0
1 9.60448 0.153545 0
1 10.3544 1.34794 0
1 11.6909 1.38699 0
1 12.3943 2.66972 0
1 13.6985 2.679 0
1 14.4089 3.90733 0
1 15.8289 3.92503 0
1 16.5941 5.16301 0
1 17.9968 5.1265 0
1 18.7725 6.36709 0
1 20.1598 6.35484 0
1 4.9545 0.676694 0
1 6.2169 0.624655 0
1 6.97047 1.87509 0
1 8.3398 1.92998 0
1 9.08529 3.14297 0
1 10.3743 3.45374 0
1 11.731 3.90316 0
1 12.4574 5.23146 0
1 13.837 5.18333 0
1 14.562 6.41401 0
1 15.9445 6.38579 0
1 16.7406 7.68382 0
1 18.1151 7.60015 0
1 18.9117 8.88811 0
1 20.3182 8.8738 0
1 0.191038 36.693 0
1 1.04911 1.01207 0
1 2.32911 0.885501 0
1 3.15624 2.089 0
1 4.44008 1.93194 0
1 5.15396 3.18344 0
1 6.4372 3.11732 0
1 7.14324 4.33745 0
1 8.46772 4.42161 0
1 9.50925 5.41494 0
1 10.3648 6.54894 0
1 11.7721 6.47728 0
1 12.5174 7.65268 0
1 13.9016 7.71078 0
1 14.6724 8.93444 0
1 16.1014 8.91616 0
1 16.8186 10.104 0
1 18.2475 10.1344 0
1 18.9732 11.3726 0
1 20.3904 11.314 0
1 20.4739 2.46637 0
1 0.53144 2.35204 0
1 1.37797 3.58469 0
1 2.72648 3.4769 0
1 3.63566 4.87882 0
1 5.03294 4.72798 0
1 6.09946 6.17412 0
1 7.61322 6.39399 0
1 8.34231 7.66707 0
1 9.7272 7.72496 0
1 10.4456 8.96234 0
1 11.823 8.94265 0
1 12.5918 10.1576 0
1 13.9916 10.157 0
1 14.742 11.4055 0
1 16.1488 11.3527 0
1 16.8843 12.6198 0
1 18.3103 12.6384 0
1 19.0543 13.8527 0
1 20.4912 13.8336 0
1 20.7786 5.02462 0
1 0.835243 4.91573 0
1 1.70001 6.24068 0
1 3.10529 6.12864 0
1 3.95713 7.48544 0
1 5.42601 7.48249 0
1 6.21423 8.80108 0
1 7.64344 8.87908 0
1 8.33059 10.132 0
1 9.71565 10.1781 0
1 10.4464 11.4074 0
1 11.8819 11.4099 0
1 12.6892 12.6437 0
1 14.0486 12.6667 0
1 14.787 13.8955 0
1 16.1871 13.8826 0
1 16.9365 15.0814 0
1 18.3395 15.0611 0
1 19.0595 16.363 0
1 20.4856 16.3089 0
1 20.9618 7.57451 0
1 1.07356 7.52232 0
1 1.90518 8.78764 0
1 3.34255 8.7769 0
1 4.0877 10.0329 0
1 5.50342 10.0422 0
1 6.26203 11.3653 0
1 7.63646 11.3539 0
1 8.36338 12.6341 0
1 9.7801 12.6637 0
1 10.5251 13.8667 0
1 11.9216 13.8355 0
1 12.6791 15.1068 0
1 14.0688 15.1076 0
1 14.7985 16.356 0
1 16.2493 16.3469 0
1 16.9552 17.5709 0
1 18.3406 17.5791 0
1 19.0867 18.7997 0
1 20.517 18.7569 0
1 21.0726 10.0951 0
1 1.24009 10.0778 0
1 2.00807 11.2906 0
1 3.41285 11.3072 0
1 4.14831 12.5911 0
1 5.55249 12.5754 0
1 6.27764 13.8294 0
1 7.6572 13.8144 0
1 8.42909 15.0851 0
1 9.8302 15.1034 0
1 10.5691 16.3047 0
1 11.9559 16.3321 0
1 12.6204 17.5457 0
1 14.1032 17.5933 0
1 14.8098 18.8335 0
1 16.2081 18.8257 0
1 16.9536 20.0664 0
1 18.3832 20.0137 0
1 19.0817 21.3185 0
1 20.5396 21.3076 0
1 21.1658 12.6061 0
1 1.3107 12.5789 0
1 2.02251 13.8334 0
1 3.42164 13.8602 0
1 4.1375 15.0389 0
1 5.63051 15.0417 0
1 6.29269 16.3666 0
1 7.69709 16.3327 0
1 8.36649 17.5282 0
1 9.8575 17.5509 0
1 10.5633 18.7907 0
1 11.9523 18.7548 0
1 12.6697 20.0105 0
1 14.1084 20.046 0
1 14.8135 21.3031 0
1 16.2923 21.2881 0
1 16.9435 22.5275 0
1 18.379 22.5531 0
1 19.1136 23.8108 0
1 20.5285 23.7737 0
1 21.1866 15.0744 0
1 1.31897 15.101 0
1 2.04781 16.3514 0
1 3.44391 16.3206 0
1 4.20152 17.5326 0
1 5.60713 17.5452 0
1 6.30694 18.7965 0
1 7.68026 18.7813 0
1 8.41079 20.0083 0
1 9.89144 19.987 0
1 10.5691 21.2614 0
1 11.9803 21.245 0
1 12.6983 22.4805 0
1 14.1163 22.5141 0
1 14.8565 23.7562 0
1 16.2914 23.7607 0
1 17.0312 24.9908 0
1 18.4268 24.9928 0
1 19.1151 26.252 0
1 20.5896 26.2657 0
1 21.1992 17.5483 0
1 1.32682 17.5752 0
1 2.04414 18.8045 0
1 3.469 18.7589 0
1 4.14061 20.0061 0
1 5.59316 20.0258 0
1 6.29676 21.2272 0
1 7.72911 21.2229 0
1 8.45117 22.4513 0
1 9.85109 22.4843 0
1 10.5997 23.7595 0
1 12.0157 23.6961 0
1 12.7441 24.9601 0
1 14.1798 25.0437 0
1 14.9022 26.2674 0
1 16.3327 26.2445 0
1 17.1103 27.5059 0
1 18.4598 27.4649 0
1 19.2931 28.8232 0
1 20.697 28.7779 0
1 21.2246 20.0274 0
1 1.34324 20.0479 0
1 2.08779 21.2566 0
1 3.4331 21.2398 0
1 4.1833 22.5181 0
1 5.62231 22.4827 0
1 6.3501 23.7361 0
1 7.75041 23.7092 0
1 8.47709 24.9399 0
1 9.90459 24.9514 0
1 10.6293 26.172 0
1 12.0451 26.2155 0
1 12.8311 27.4289 0
1 14.2477 27.4692 0
1 14.9712 28.7266 0
1 16.3814 28.7223 0
1 17.1539 30.0075 0
1 18.6073 30.0462 0
1 19.368 31.362 0
1 20.8149 31.3587 0
1 21.2692 22.5048 0
1 1.37273 22.5099 0
1 2.07816 23.7703 0
1 3.48857 23.7626 0
1 4.24019 24.9489 0
1 5.67815 24.9566 0
1 6.34898 26.1719 0
1 7.80362 26.1682 0
1 8.58561 27.3976 0
1 9.98028 27.4025 0
1 10.7203 28.5788 0
1 12.156 28.6457 0
1 12.8739 29.9074 0
1 14.3013 29.9709 0
1 15.1637 31.1844 0
1 16.5248 31.2381 0
1 17.2987 32.4934 0
1 18.7167 32.6031 0
1 19.7247 34.1052 0
1 21.1088 34.0118 0
1 21.2554 25.0166 0
1 1.37029 24.9772 0
1 2.10296 26.2085 0
1 3.51303 26.2091 0
1 4.24831 27.4842 0
1 5.64415 27.431 0
1 6.40006 28.6807 0
1 7.88886 28.6523 0
1 8.65529 29.9272 0
1 10.0792 29.8581 0
1 11.0273 30.941 0
1 11.9235 32.0918 0
1 13.2737 32.1033 0
1 14.0019 33.2761 0
1 15.3435 33.2649 0
1 16.1079 34.5243 0
1 17.4549 34.6217 0
1 18.1184 35.774 0
1 19.4093 35.5942 0
1 20.2126 36.8517 0
1 0.0628116 27.5139 0
1 1.45194 27.5028 0
1 2.19722 28.7637 0
1 3.60677 28.7386 0
1 4.34513 29.9498 0
1 5.75751 29.9477 0
1 6.54645 31.1485 0
1 7.95018 31.1346 0
1 8.57515 32.4028 0
1 9.90239 32.6543 0
1 11.2574 33.3698 0
1 11.9905 34.5961 0
1 13.4057 34.5268 0
1 14.1534 35.8172 0
1 15.4675 35.795 0
1 16.2187 0.158453 0
1 0.157985 30.064 0
1 1.55989 30.0651 0
1 2.35651 31.2917 0
1 3.72002 31.2463 0
1 4.5188 32.443 0
1 5.93338 32.4256 0
1 6.67234 33.6909 0
1 8.00978 33.6063 0
1 9.05406 34.7306 0
1 10.1106 35.8285 0
1 11.4309 35.7783 0
1 12.2503 0.152487 0
1 0.367939 32.6156 0
1 1.74883 32.5232 0
1 2.57121 33.818 0
1 3.9433 33.7253 0
1 4.75138 34.9813 0
1 6.0974 34.952 0
1 6.86108 36.2566 0
1 8.18675 36.7322 0
1 0.68059 35.3121 0
1 2.00675 35.1753 0
1 2.85921 36.3926 0
1 4.16481 36.3162 0
