296
Atoms. Timestep: 1000
1 17.5033 0.131361 0
1 18.2971 1.40097 0
1 19.6518 1.29716 0
1 13.5589 0.137468 0
1 14.2914 1.47728 0
1 15.6604 1.47011 0
1 16.4671 2.74634 0
1 17.8424 2.71759 0
1 18.61 3.90378 0
1 19.9568 3.79424 0
1 9.57008 0.150242 0
1 10.3544 1.3274 0
1 11.672 1.37508 0
1 12.3683 2.63998 0
1 13.683 2.69038 0
1 14.417 3.88508 0
1 15.8312 3.92127 0
1 16.5777 5.13832 0
1 18.0103 5.1354 0
1 18.7501 6.36121 0
1 20.174 6.36321 0
1 4.92858 0.630857 0
1 6.23145 0.644503 0
1 6.98867 1.87715 0
1 8.35126 1.93289 0
1 9.0079 3.15729 0
1 10.3755 3.44642 0
1 11.6834 3.88369 0
1 12.4453 5.21281 0
1 13.7853 5.15098 0
1 14.5674 6.36035 0
1 15.9294 6.36338 0
1 16.7195 7.62319 0
1 18.1184 7.61029 0
1 18.8972 8.8991 0
1 20.2934 8.88605 0
1 0.212728 36.7704 0
1 1.04208 1.03976 0
1 2.38041 0.864837 0
1 3.20005 2.04193 0
1 4.43988 1.8961 0
1 5.11727 3.17851 0
1 6.40139 3.14517 0
1 7.09739 4.36955 0
1 8.49486 4.42657 0
1 9.51607 5.44648 0
1 10.387 6.53277 0
1 11.8096 6.44624 0
1 12.4678 7.6784 0
1 13.904 7.63031 0
1 14.6561 8.93389 0
1 16.0981 8.88779 0
1 16.8256 10.0807 0
1 18.2032 10.1081 0
1 18.9485 11.359 0
1 20.3627 11.3338 0
1 20.4918 2.47489 0
1 0.547605 2.33401 0
1 1.39182 3.53935 0
1 2.74676 3.46244 0
1 3.61904 4.88404 0
1 4.96272 4.73943 0
1 6.05862 6.18522 0
1 7.60587 6.40814 0
1 8.34256 7.67053 0
1 9.72312 7.70923 0
1 10.3765 8.9353 0
1 11.808 8.89187 0
1 12.5309 10.1327 0
1 13.9827 10.1445 0
1 14.7339 11.3776 0
1 16.1343 11.3113 0
1 16.8783 12.617 0
1 18.3109 12.6169 0
1 19.0715 13.8327 0
1 20.5066 13.8387 0
1 20.7682 5.01967 0
1 0.842325 4.88539 0
1 1.67156 6.20366 0
1 3.04239 6.18147 0
1 3.97481 7.49887 0
1 5.42639 7.477 0
1 6.23963 8.78636 0
1 7.65874 8.84617 0
1 8.30427 10.1196 0
1 9.66663 10.1645 0
1 10.3681 11.4395 0
1 11.8927 11.3646 0
1 12.6389 12.6363 0
1 14.1033 12.6689 0
1 14.7705 13.9259 0
1 16.1938 13.8737 0
1 16.953 15.0664 0
1 18.3656 15.0598 0
1 19.0481 16.3235 0
1 20.4833 16.3208 0
1 20.9262 7.62462 0
1 1.06971 7.52748 0
1 1.90925 8.8137 0
1 3.33762 8.7745 0
1 4.1343 10.0133 0
1 5.54063 10.0239 0
1 6.24642 11.331 0
1 7.62304 11.3593 0
1 8.31271 12.6167 0
1 9.71988 12.6565 0
1 10.4917 13.8332 0
1 11.9703 13.8293 0
1 12.6522 15.076 0
1 14.0894 15.1371 0
1 14.8193 16.3812 0
1 16.2792 16.3411 0
1 16.9578 17.5949 0
1 18.3741 17.5893 0
1 19.0955 18.7547 0
1 20.5169 18.7387 0
1 21.0397 10.0975 0
1 1.2678 10.0629 0
1 2.04734 11.3038 0
1 3.45435 11.2707 0
1 4.16117 12.5938 0
1 5.58644 12.6044 0
1 6.31791 13.7771 0
1 7.66382 13.7974 0
1 8.38996 15.0772 0
1 9.87248 15.0512 0
1 10.5628 16.2746 0
1 11.9386 16.2652 0
1 12.605 17.5109 0
1 14.0671 17.602 0
1 14.8001 18.8688 0
1 16.2279 18.8663 0
1 16.9975 20.0668 0
1 18.4133 20.0508 0
1 19.1326 21.3625 0
1 20.5701 21.3218 0
1 21.1974 12.5805 0
1 1.34903 12.5748 0
1 2.05473 13.884 0
1 3.43662 13.8442 0
1 4.14067 15.0473 0
1 5.60366 15.0276 0
1 6.35199 16.3212 0
1 7.67192 16.3422 0
1 8.34735 17.5137 0
1 9.83457 17.4919 0
1 10.579 18.7021 0
1 11.9003 18.6989 0
1 12.6576 19.9589 0
1 14.0928 20.0539 0
1 14.8406 21.3181 0
1 16.2791 21.3441 0
1 17.0179 22.5642 0
1 18.3732 22.617 0
1 19.1065 23.8346 0
1 20.5386 23.8403 0
1 21.2116 15.0812 0
1 1.3266 15.1299 0
1 2.03974 16.3995 0
1 3.48308 16.315 0
1 4.20841 17.5108 0
1 5.61481 17.5562 0
1 6.26637 18.7829 0
1 7.6318 18.7459 0
1 8.40834 19.9261 0
1 9.8772 19.9524 0
1 10.5975 21.2058 0
1 11.9681 21.2114 0
1 12.6936 22.451 0
1 14.1147 22.5208 0
1 14.8842 23.8271 0
1 16.296 23.7541 0
1 17.0479 24.978 0
1 18.4145 25.0255 0
1 19.1053 26.233 0
1 20.5687 26.2885 0
1 21.2201 17.5244 0
1 1.33616 17.5988 0
1 2.03844 18.7927 0
1 3.46455 18.7475 0
1 4.11696 19.9689 0
1 5.54621 19.9936 0
1 6.28775 21.2031 0
1 7.7131 21.1532 0
1 8.43394 22.4163 0
1 9.85867 22.46 0
1 10.5907 23.7264 0
1 12.0263 23.7111 0
1 12.7616 25.0065 0
1 14.2063 25.0798 0
1 14.9624 26.3177 0
1 16.3855 26.2622 0
1 17.0658 27.4619 0
1 18.4564 27.4754 0
1 19.3285 28.8382 0
1 20.7606 28.8509 0
1 21.2745 20.035 0
1 1.37799 20.0359 0
1 2.05411 21.2612 0
1 3.40877 21.2233 0
1 4.14505 22.5115 0
1 5.60192 22.4817 0
1 6.39457 23.708 0
1 7.76584 23.6774 0
1 8.50078 24.9199 0
1 9.92604 24.9757 0
1 10.6656 26.2171 0
1 12.0857 26.1838 0
1 12.8931 27.469 0
1 14.2766 27.4896 0
1 14.968 28.7012 0
1 16.3957 28.7287 0
1 17.135 29.992 0
1 18.614 30.0937 0
1 19.3601 31.3794 0
1 20.8299 31.3869 0
1 21.294 22.5407 0
1 1.41296 22.5177 0
1 2.06173 23.7832 0
1 3.4956 23.776 0
1 4.22452 24.965 0
1 5.66293 24.928 0
1 6.34171 26.1606 0
1 7.83099 26.1436 0
1 8.63799 27.4205 0
1 10.0505 27.3717 0
1 10.8097 28.6287 0
1 12.227 28.6336 0
1 12.8781 29.9078 0
1 14.3017 29.9458 0
1 15.1014 31.1092 0
1 16.4989 31.2069 0
1 17.2814 32.5137 0
1 18.6891 32.5977 0
1 19.7014 34.0681 0
1 21.145 34.0334 0
1 21.243 25.0261 0
1 1.33037 25.005 0
1 2.0689 26.2045 0
1 3.46506 26.2046 0
1 4.17189 27.4971 0
1 5.55926 27.451 0
1 6.36615 28.6895 0
1 7.94561 28.6788 0
1 8.73069 29.9764 0
1 10.1769 29.8948 0
1 11.1038 30.9781 0
1 11.9436 32.1639 0
1 13.282 32.1067 0
1 14.0146 33.2481 0
1 15.3279 33.2779 0
1 16.0672 34.5159 0
1 17.4295 34.5928 0
1 18.0858 35.799 0
1 19.3852 35.6308 0
1 20.1812 36.9073 0
1 0.0736589 27.5657 0
1 1.43386 27.5172 0
1 2.2084 28.8414 0
1 3.53971 28.7896 0
1 4.3124 30.0188 0
1 5.72582 29.947 0
1 6.57344 31.1745 0
1 7.97816 31.1745 0
1 8.57315 32.429 0
1 9.91358 32.6433 0
1 11.214 33.4331 0
1 12.0012 34.5857 0
1 13.3434 34.5481 0
1 14.1204 35.8024 0
1 15.4388 35.8146 0
1 16.1702 0.164291 0
1 0.201291 30.142 0
1 1.59285 30.1259 0
1 2.36204 31.3246 0
1 3.72727 31.2361 0
1 4.54392 32.4224 0
1 5.92653 32.4112 0
1 6.68761 33.7046 0
1 7.98201 33.648 0
1 9.19048 34.6652 0
1 10.1185 35.8345 0
1 11.4214 35.7915 0
1 12.2155 0.123906 0
1 0.40469 32.6065 0
1 1.78828 32.5198 0
1 2.58676 33.7666 0
1 3.96482 33.6763 0
1 4.75686 34.9513 0
1 6.10277 34.9533 0
1 6.81192 36.3155 0
1 8.15605 36.706 0
1 0.667398 35.3821 0
1 2.03552 35.1864 0
1 2.84311 36.3926 0
1 4.19627 36.2667 0
