296
Atoms. Timestep: 50
1 17.6299 0.101671 0
1 18.4381 1.33502 0
1 19.7638 1.23517 0
1 13.5859 0.142967 0
1 14.3841 1.43431 0
1 15.7306 1.4107 0
1 16.5376 2.67726 0
1 17.894 2.62542 0
1 18.7134 3.88288 0
1 20.0736 3.82022 0
1 9.55057 0.103667 0
1 10.306 1.32191 0
1 11.6644 1.39251 0
1 12.4508 2.69264 0
1 13.7931 2.69691 0
1 14.5689 3.97808 0
1 15.9468 3.95014 0
1 16.7406 5.20473 0
1 18.1219 5.16301 0
1 18.9088 6.41639 0
1 20.2883 6.37862 0
1 4.87679 0.65595 0
1 6.19436 0.613302 0
1 6.97742 1.87596 0
1 8.31579 1.94433 0
1 9.08002 3.14672 0
1 10.4589 3.40544 0
1 11.7987 3.96286 0
1 12.5241 5.26623 0
1 13.934 5.24705 0
1 14.7105 6.49608 0
1 16.1105 6.46947 0
1 16.8772 7.71366 0
1 18.2709 7.68231 0
1 19.0222 8.92454 0
1 20.411 8.89716 0
1 0.211165 -0.286335 0
1 1.02841 0.967312 0
1 2.30785 0.818894 0
1 3.07776 2.12201 0
1 4.36382 1.98698 0
1 5.12097 3.2886 0
1 6.42341 3.15654 0
1 7.17199 4.36866 0
1 8.53705 4.38578 0
1 9.61025 5.40039 0
1 10.4495 6.57333 0
1 11.8648 6.51945 0
1 12.6365 7.76237 0
1 14.0539 7.74744 0
1 14.8075 8.98826 0
1 16.2158 8.96976 0
1 16.9531 10.2061 0
1 18.3515 10.183 0
1 19.0763 11.4151 0
1 20.469 11.3916 0
1 -0.691046 2.50374 0
1 0.636869 2.39425 0
1 1.50511 3.73815 0
1 2.8511 3.64193 0
1 3.7366 4.98961 0
1 5.13229 4.88965 0
1 6.12225 6.2837 0
1 7.6281 6.411 0
1 8.35451 7.70606 0
1 9.79135 7.76822 0
1 10.5247 8.99823 0
1 11.9604 8.99857 0
1 12.6975 10.2339 0
1 14.1233 10.2318 0
1 14.8526 11.4672 0
1 16.2659 11.4559 0
1 16.9836 12.6868 0
1 18.3854 12.6692 0
1 19.096 13.8936 0
1 20.4914 13.8714 0
1 -0.406138 5.09885 0
1 0.95937 5.04932 0
1 1.77895 6.33023 0
1 3.16945 6.28749 0
1 3.99029 7.56285 0
1 5.4329 7.55637 0
1 6.19497 8.85394 0
1 7.64086 8.89966 0
1 8.37423 10.166 0
1 9.82403 10.201 0
1 10.5503 11.4415 0
1 11.9947 11.4575 0
1 12.7176 12.6946 0
1 14.1487 12.7015 0
1 14.8632 13.9365 0
1 16.2808 13.9308 0
1 16.9904 15.1585 0
1 18.3956 15.1433 0
1 19.1013 16.3637 0
1 20.4979 16.3422 0
1 -0.236831 7.63365 0
1 1.1519 7.60266 0
1 1.91453 8.85137 0
1 3.32414 8.83027 0
1 4.06926 10.0841 0
1 5.49408 10.088 0
1 6.22633 11.3464 0
1 7.66559 11.3734 0
1 8.39128 12.6218 0
1 9.83919 12.6488 0
1 10.559 13.8925 0
1 12.0028 13.9129 0
1 12.7179 15.1534 0
1 14.1509 15.1657 0
1 14.8625 16.4009 0
1 16.2828 16.3981 0
1 16.9916 17.6244 0
1 18.3983 17.6102 0
1 19.1024 18.8297 0
1 20.4991 18.8089 0
1 -0.151183 10.1349 0
1 1.24347 10.1107 0
1 1.97206 11.3454 0
1 3.37826 11.3308 0
1 4.10142 12.5707 0
1 5.5225 12.5728 0
1 6.24353 13.8168 0
1 7.67952 13.8345 0
1 8.39898 15.0787 0
1 9.84216 15.1031 0
1 10.5586 16.3489 0
1 11.9999 16.3717 0
1 12.7154 17.614 0
1 14.1495 17.6273 0
1 14.8626 18.8629 0
1 16.2839 18.8616 0
1 16.9927 20.0878 0
1 18.3995 20.0749 0
1 19.1054 21.2952 0
1 20.502 21.2753 0
1 -0.114422 12.6192 0
1 1.28152 12.5976 0
1 1.99421 13.8241 0
1 3.40019 13.8107 0
1 4.11352 15.0418 0
1 5.53411 15.042 0
1 6.249 16.2803 0
1 7.68313 16.2956 0
1 8.39952 17.5397 0
1 9.84055 17.5624 0
1 10.5581 18.8094 0
1 11.9995 18.8317 0
1 12.7158 20.0739 0
1 14.1504 20.0881 0
1 14.8643 21.3235 0
1 16.2864 21.3233 0
1 16.998 22.5506 0
1 18.4057 22.5394 0
1 19.1168 23.7631 0
1 20.5131 23.7449 0
1 -0.102002 15.0932 0
1 1.29451 15.0723 0
1 2.0005 16.294 0
1 3.40705 16.2806 0
1 4.11594 17.5085 0
1 5.53675 17.5072 0
1 6.24992 18.7441 0
1 7.68363 18.7579 0
1 8.39955 20.0008 0
1 9.84073 20.0229 0
1 10.558 21.268 0
1 11.9998 21.2903 0
1 12.7174 22.532 0
1 14.1534 22.547 0
1 14.8712 23.784 0
1 16.2954 23.7848 0
1 17.015 25.0154 0
1 18.4242 25.0063 0
1 19.1474 26.2376 0
1 20.5426 26.2223 0
1 -0.0993752 17.5614 0
1 1.29728 17.5405 0
1 2.00144 18.7604 0
1 3.40797 18.7464 0
1 4.11664 19.9731 0
1 5.53706 19.9709 0
1 6.24995 21.207 0
1 7.68309 21.2193 0
1 8.39925 22.4604 0
1 9.84053 22.4807 0
1 10.5582 23.724 0
1 12.0031 23.7468 0
1 12.7245 24.9887 0
1 14.1642 25.0062 0
1 14.8923 26.2471 0
1 16.3214 26.2484 0
1 17.0597 27.4861 0
1 18.4693 27.4803 0
1 19.215 28.7299 0
1 20.6057 28.7173 0
1 -0.0980907 20.0278 0
1 1.29836 20.0067 0
1 2.00383 21.227 0
1 3.40938 21.2122 0
1 4.11983 22.4399 0
1 5.53848 22.4356 0
1 6.25376 23.6717 0
1 7.68441 23.6802 0
1 8.40411 24.9194 0
1 9.84529 24.9342 0
1 10.5691 26.174 0
1 12.0159 26.2 0
1 12.7517 27.4493 0
1 14.1979 27.4702 0
1 14.9563 28.7196 0
1 16.3881 28.7186 0
1 17.1621 29.9713 0
1 18.5586 29.978 0
1 19.3349 31.2728 0
1 20.7232 31.2552 0
1 -0.0919733 22.4964 0
1 1.30343 22.4752 0
1 2.01359 23.6988 0
1 3.4168 23.6822 0
1 4.13345 24.9131 0
1 5.54847 24.9045 0
1 6.27275 26.1415 0
1 7.69903 26.1424 0
1 8.43266 27.3786 0
1 9.86802 27.3798 0
1 10.6017 28.6017 0
1 12.0505 28.6545 0
1 12.8386 29.9217 0
1 14.2953 29.9573 0
1 15.1242 31.1779 0
1 16.5196 31.1995 0
1 17.2983 32.4426 0
1 18.6935 32.5519 0
1 19.6081 33.9943 0
1 20.9838 33.8684 0
1 -0.0727939 24.9717 0
1 1.32064 24.9505 0
1 2.04126 26.1807 0
1 3.4413 26.1603 0
1 4.1716 27.3954 0
1 5.58239 27.3796 0
1 6.32351 28.618 0
1 7.74676 28.6109 0
1 8.50267 29.8534 0
1 9.95023 29.8037 0
1 10.9674 30.8741 0
1 11.9152 32.0378 0
1 13.2191 32.0661 0
1 13.9932 33.2728 0
1 15.3424 33.3033 0
1 16.114 34.5093 0
1 17.4494 34.5393 0
1 18.1638 35.7221 0
1 19.4386 35.5413 0
1 20.2367 36.7725 0
1 -0.0278015 27.4605 0
1 1.36243 27.4377 0
1 2.10231 28.6776 0
1 3.49858 28.649 0
1 4.25263 29.8878 0
1 5.65314 29.8599 0
1 6.41207 31.0928 0
1 7.81573 31.0775 0
1 8.49615 32.3262 0
1 9.81233 32.6391 0
1 11.2055 33.298 0
1 12.0066 34.5371 0
1 13.3778 34.5183 0
1 14.1676 35.7816 0
1 15.511 35.7661 0
1 16.2965 37.0363 0
1 0.0604697 29.9764 0
1 1.44842 29.9448 0
1 2.22338 31.1958 0
1 3.61156 31.1536 0
1 4.40158 32.4032 0
1 5.77875 32.3629 0
1 6.57882 33.6271 0
1 7.91892 33.5494 0
1 8.89579 34.704 0
1 10.0488 35.7565 0
1 11.4225 35.7478 0
1 12.2371 37.0383 0
1 0.235315 32.5424 0
1 1.61602 32.4813 0
1 2.44993 33.7478 0
1 3.81451 33.6828 0
1 4.64332 34.951 0
1 6.00584 34.8941 0
1 6.8039 36.2013 0
1 8.1551 36.7213 0
1 0.586485 35.1802 0
1 1.91793 35.0608 0
1 2.76514 36.3376 0
1 4.08492 36.2579 0
