296
Atoms. Timestep: 200
1 17.5648 0.124247 0
1 18.3521 1.33886 0
1 19.6769 1.24649 0
1 13.5579 0.149618 0
1 14.3324 1.43003 0
1 15.6606 1.4029 0
1 16.441 2.67018 0
1 17.7729 2.62442 0
1 18.5766 3.85579 0
1 19.9326 3.78425 0
1 9.58866 0.161409 0
1 10.3474 1.36244 0
1 11.6693 1.40907 0
1 12.3991 2.67368 0
1 13.7197 2.67462 0
1 14.4482 3.93419 0
1 15.8253 3.923 0
1 16.5964 5.16758 0
1 17.9802 5.1279 0
1 18.7722 6.37098 0
1 20.1643 6.32867 0
1 4.95085 0.673383 0
1 6.24563 0.619745 0
1 7.00334 1.86299 0
1 8.33202 1.93329 0
1 9.06592 3.15636 0
1 10.4097 3.45528 0
1 11.7481 3.90791 0
1 12.4326 5.21935 0
1 13.8236 5.19875 0
1 14.5693 6.44018 0
1 15.9606 6.41355 0
1 16.7359 7.6716 0
1 18.1321 7.62553 0
1 18.9115 8.8785 0
1 20.3269 8.85059 0
1 0.203751 36.6689 0
1 1.03173 1.00506 0
1 2.32482 0.878798 0
1 3.13719 2.10056 0
1 4.41996 1.96389 0
1 5.16924 3.2018 0
1 6.44945 3.10392 0
1 7.13456 4.33233 0
1 8.477 4.38743 0
1 9.5094 5.40568 0
1 10.3647 6.54724 0
1 11.761 6.47393 0
1 12.523 7.69188 0
1 13.9147 7.69879 0
1 14.6725 8.92986 0
1 16.0834 8.91393 0
1 16.8264 10.1391 0
1 18.2481 10.132 0
1 18.9899 11.3698 0
1 20.4121 11.339 0
1 20.4826 2.46964 0
1 0.520745 2.35841 0
1 1.37029 3.60829 0
1 2.71326 3.48586 0
1 3.6502 4.84595 0
1 5.05143 4.72523 0
1 6.11324 6.18039 0
1 7.62205 6.36935 0
1 8.32915 7.67709 0
1 9.72791 7.74205 0
1 10.4505 8.96342 0
1 11.8458 8.95076 0
1 12.5942 10.1748 0
1 13.9972 10.167 0
1 14.7396 11.4057 0
1 16.1519 11.3843 0
1 16.8873 12.6261 0
1 18.3086 12.6221 0
1 19.0429 13.8533 0
1 20.4695 13.8387 0
1 20.7659 5.0278 0
1 0.837787 4.93776 0
1 1.70251 6.22965 0
1 3.1127 6.14855 0
1 3.96941 7.47438 0
1 5.42303 7.47439 0
1 6.1953 8.811 0
1 7.61953 8.8753 0
1 8.34022 10.1447 0
1 9.7518 10.1755 0
1 10.4822 11.4085 0
1 11.8984 11.4132 0
1 12.6523 12.6453 0
1 14.0474 12.6475 0
1 14.7823 13.8787 0
1 16.1934 13.8723 0
1 16.9238 15.0979 0
1 18.3391 15.0865 0
1 19.0617 16.3407 0
1 20.4853 16.3191 0
1 20.9732 7.56959 0
1 1.08612 7.52199 0
1 1.89362 8.78636 0
1 3.32317 8.76575 0
1 4.08077 10.0452 0
1 5.49754 10.0553 0
1 6.2439 11.3499 0
1 7.64764 11.3627 0
1 8.37893 12.6262 0
1 9.79608 12.6415 0
1 10.5265 13.8739 0
1 11.9345 13.8657 0
1 12.6694 15.1108 0
1 14.0773 15.1077 0
1 14.7988 16.3449 0
1 16.2246 16.3421 0
1 16.9404 17.5729 0
1 18.3504 17.5718 0
1 19.0769 18.8064 0
1 20.5026 18.7901 0
1 21.0919 10.0901 0
1 1.22498 10.0675 0
1 1.98101 11.3118 0
1 3.39687 11.3114 0
1 4.13404 12.5795 0
1 5.54511 12.5789 0
1 6.27113 13.8396 0
1 7.67912 13.8421 0
1 8.41627 15.0932 0
1 9.82557 15.1042 0
1 10.5516 16.3298 0
1 11.9617 16.3408 0
1 12.664 17.5676 0
1 14.0995 17.5797 0
1 14.8099 18.8147 0
1 16.2232 18.8122 0
1 16.9456 20.0518 0
1 18.3703 20.0346 0
1 19.0842 21.2895 0
1 20.5179 21.2844 0
1 21.1592 12.5958 0
1 1.28783 12.5783 0
1 2.01419 13.8259 0
1 3.42855 13.8329 0
1 4.15132 15.0636 0
1 5.58894 15.0672 0
1 6.28872 16.3338 0
1 7.70646 16.3259 0
1 8.40932 17.5546 0
1 9.84664 17.5642 0
1 10.5555 18.8005 0
1 11.9704 18.7923 0
1 12.6824 20.0325 0
1 14.107 20.0413 0
1 14.8189 21.2841 0
1 16.2561 21.2797 0
1 16.9559 22.5216 0
1 18.3857 22.5259 0
1 19.1149 23.7745 0
1 20.5348 23.759 0
1 21.1871 15.0786 0
1 1.31309 15.0793 0
1 2.03706 16.3214 0
1 3.44888 16.3143 0
1 4.17825 17.5481 0
1 5.59242 17.5505 0
1 6.30394 18.7922 0
1 7.71148 18.7903 0
1 8.42656 20.0243 0
1 9.86168 20.0178 0
1 10.5653 21.2634 0
1 11.9842 21.2604 0
1 12.7036 22.4978 0
1 14.1222 22.5089 0
1 14.8512 23.7495 0
1 16.2759 23.7575 0
1 17.0107 25.0021 0
1 18.4255 25 0
1 19.1552 26.2576 0
1 20.5878 26.2535 0
1 21.2019 17.5585 0
1 1.32689 17.559 0
1 2.04559 18.7958 0
1 3.46589 18.7813 0
1 4.17186 20.0218 0
1 5.59827 20.025 0
1 6.30936 21.2507 0
1 7.7304 21.2499 0
1 8.45003 22.4802 0
1 9.8629 22.4876 0
1 10.5936 23.7331 0
1 12.0117 23.7183 0
1 12.7421 24.9648 0
1 14.1658 24.9951 0
1 14.8996 26.2405 0
1 16.3222 26.242 0
1 17.0849 27.5052 0
1 18.4845 27.4948 0
1 19.266 28.79 0
1 20.6743 28.7696 0
1 21.2167 20.0339 0
1 1.33885 20.0361 0
1 2.06795 21.2644 0
1 3.46748 21.2575 0
1 4.19602 22.5033 0
1 5.61747 22.4896 0
1 6.3379 23.7287 0
1 7.75218 23.7174 0
1 8.47867 24.9479 0
1 9.89983 24.9458 0
1 10.6299 26.1723 0
1 12.0512 26.1966 0
1 12.8017 27.4338 0
1 14.226 27.4634 0
1 14.9785 28.7304 0
1 16.4007 28.7343 0
1 17.1809 30.0137 0
1 18.6025 30.0345 0
1 19.3866 31.353 0
1 20.8067 31.3413 0
1 21.2435 22.5113 0
1 1.35922 22.5084 0
1 2.08329 23.7516 0
1 3.4974 23.743 0
1 4.2333 24.9661 0
1 5.65446 24.9618 0
1 6.37043 26.1892 0
1 7.79434 26.1795 0
1 8.54381 27.4046 0
1 9.95341 27.3966 0
1 10.6903 28.5946 0
1 12.1146 28.6463 0
1 12.8734 29.9122 0
1 14.316 29.9682 0
1 15.1518 31.2021 0
1 16.5402 31.2391 0
1 17.3006 32.495 0
1 18.7349 32.6232 0
1 19.7264 34.1223 0
1 21.0963 33.9908 0
1 21.2679 25.0052 0
1 1.38696 24.9861 0
1 2.12324 26.227 0
1 3.53764 26.2155 0
1 4.27817 27.4627 0
1 5.6878 27.4347 0
1 6.43373 28.6741 0
1 7.86493 28.6514 0
1 8.62596 29.8975 0
1 10.055 29.8241 0
1 11.0211 30.9144 0
1 11.921 32.0808 0
1 13.2609 32.0928 0
1 14.0097 33.2903 0
1 15.3702 33.3024 0
1 16.1124 34.5339 0
1 17.4492 34.6024 0
1 18.1358 35.7655 0
1 19.4139 35.5974 0
1 20.2144 36.815 0
1 0.0433223 27.5068 0
1 1.45187 27.4914 0
1 2.204 28.7424 0
1 3.61543 28.7164 0
1 4.36992 29.9494 0
1 5.7749 29.9274 0
1 6.53705 31.1493 0
1 7.93405 31.1296 0
1 8.58452 32.3872 0
1 9.9077 32.6695 0
1 11.2574 33.3388 0
1 12.0223 34.5788 0
1 13.3993 34.5383 0
1 14.1585 35.8027 0
1 15.4883 35.7861 0
1 16.2435 0.15481 0
1 0.147034 30.0477 0
1 1.55288 30.0237 0
1 2.34406 31.2748 0
1 3.7309 31.2306 0
1 4.52069 32.4667 0
1 5.90879 32.428 0
1 6.68074 33.6881 0
1 8.03263 33.5999 0
1 9.01054 34.7494 0
1 10.0919 35.8275 0
1 11.4474 35.7845 0
1 12.2435 0.162006 0
1 0.345955 32.6349 0
1 1.73306 32.5583 0
1 2.56457 33.8337 0
1 3.93138 33.7533 0
1 4.74248 35.0041 0
1 6.10009 34.9486 0
1 6.8645 36.2341 0
1 8.21064 36.738 0
1 0.680539 35.2837 0
1 2.01191 35.1648 0
1 2.84763 36.4095 0
1 4.16538 36.3209 0
