296
Atoms. Timestep: 85
1 17.576 0.123849 0
1 18.3491 1.33814 0
1 19.6782 1.24289 0
1 13.5684 0.151858 0
1 14.3284 1.42178 0
1 15.6602 1.40544 0
1 16.4287 2.65964 0
1 17.778 2.61605 0
1 18.5717 3.85394 0
1 19.9331 3.78123 0
1 9.58166 0.165818 0
1 10.3452 1.36228 0
1 11.6612 1.41681 0
1 12.4005 2.67298 0
1 13.726 2.67447 0
1 14.4628 3.9419 0
1 15.824 3.92186 0
1 16.5962 5.16797 0
1 17.976 5.12834 0
1 18.7702 6.37183 0
1 20.1675 6.31965 0
1 4.94735 0.670999 0
1 6.25833 0.618405 0
1 7.01531 1.85854 0
1 8.33114 1.9403 0
1 9.05512 3.16114 0
1 10.4224 3.45919 0
1 11.7512 3.90874 0
1 12.4238 5.21465 0
1 13.8155 5.20315 0
1 14.5727 6.44673 0
1 15.9649 6.42275 0
1 16.7335 7.66455 0
1 18.1381 7.6348 0
1 18.9112 8.87567 0
1 20.3291 8.84281 0
1 0.20974 36.6634 0
1 1.02423 1.00378 0
1 2.3263 0.875437 0
1 3.1326 2.1026 0
1 4.41328 1.97316 0
1 5.17326 3.20779 0
1 6.45157 3.10108 0
1 7.1283 4.32674 0
1 8.48222 4.37565 0
1 9.50929 5.40414 0
1 10.3647 6.54625 0
1 11.76 6.47096 0
1 12.5208 7.70789 0
1 13.9201 7.68999 0
1 14.6709 8.92949 0
1 16.0777 8.91229 0
1 16.8296 10.1499 0
1 18.2461 10.13 0
1 18.9948 11.368 0
1 20.4178 11.3484 0
1 20.4861 2.47091 0
1 0.517865 2.35976 0
1 1.36823 3.61468 0
1 2.70917 3.48921 0
1 3.65508 4.83508 0
1 5.05392 4.7242 0
1 6.11642 6.1833 0
1 7.62599 6.36579 0
1 8.32376 7.68064 0
1 9.72847 7.74657 0
1 10.4483 8.96344 0
1 11.8544 8.95053 0
1 12.5912 10.1804 0
1 13.9997 10.1696 0
1 14.7376 11.4047 0
1 16.1522 11.3931 0
1 16.8882 12.6283 0
1 18.3081 12.6159 0
1 19.0394 13.8523 0
1 20.4624 13.8409 0
1 20.7603 5.02894 0
1 0.83884 4.94405 0
1 1.70224 6.22402 0
1 3.11152 6.15759 0
1 3.97469 7.47069 0
1 5.42175 7.4713 0
1 6.1894 8.8138 0
1 7.61277 8.87203 0
1 8.34154 10.1486 0
1 9.76288 10.1735 0
1 10.4901 11.4115 0
1 11.9066 11.4113 0
1 12.6355 12.6461 0
1 14.0511 12.6408 0
1 14.7784 13.8748 0
1 16.1959 13.8681 0
1 16.9198 15.1025 0
1 18.3402 15.0954 0
1 19.0614 16.3307 0
1 20.4844 16.3239 0
1 20.9746 7.57019 0
1 1.09057 7.52138 0
1 1.88924 8.78711 0
1 3.31549 8.76172 0
1 4.08004 10.0484 0
1 5.49676 10.059 0
1 6.23663 11.343 0
1 7.65137 11.3663 0
1 8.38137 12.6228 0
1 9.79955 12.634 0
1 10.5246 13.8745 0
1 11.9424 13.8762 0
1 12.6642 15.1108 0
1 14.0815 15.1089 0
1 14.7999 16.3425 0
1 16.218 16.3398 0
1 16.9348 17.5742 0
1 18.3557 17.5707 0
1 19.0734 18.8058 0
1 20.4972 18.801 0
1 21.0968 10.0885 0
1 1.22104 10.0628 0
1 1.9728 11.3197 0
1 3.39256 11.3107 0
1 4.12904 12.5755 0
1 5.54362 12.5822 0
1 6.2715 13.8404 0
1 7.68712 13.8506 0
1 8.40942 15.0959 0
1 9.82711 15.1019 0
1 10.5452 16.3384 0
1 11.9633 16.3407 0
1 12.6783 17.5742 0
1 14.096 17.5751 0
1 14.8102 18.8094 0
1 16.2289 18.8096 0
1 16.9454 20.0456 0
1 18.367 20.044 0
1 19.0876 21.2811 0
1 20.5114 21.2768 0
1 21.1583 12.5907 0
1 1.28135 12.5776 0
1 2.0124 13.8258 0
1 3.43145 13.8226 0
1 4.15554 15.072 0
1 5.57204 15.0758 0
1 6.29128 16.3201 0
1 7.70804 16.3252 0
1 8.42364 17.5627 0
1 9.84143 17.5665 0
1 10.555 18.8003 0
1 11.9731 18.8033 0
1 12.6872 20.0374 0
1 14.1052 20.0405 0
1 14.8229 21.2776 0
1 16.2419 21.2799 0
1 16.9651 22.5205 0
1 18.3863 22.5197 0
1 19.1156 23.7625 0
1 20.5375 23.7572 0
1 21.1885 15.0799 0
1 1.31104 15.0726 0
1 2.03269 16.3136 0
1 3.45234 16.3116 0
1 4.17023 17.552 0
1 5.58728 17.5532 0
1 6.30223 18.7904 0
1 7.7188 18.7923 0
1 8.43278 20.0262 0
1 9.85032 20.0282 0
1 10.5662 21.2617 0
1 11.9847 21.2651 0
1 12.7054 22.502 0
1 14.1238 22.5074 0
1 14.8512 23.7509 0
1 16.2698 23.7554 0
1 17.005 25.0046 0
1 18.4247 25.0045 0
1 19.1686 26.258 0
1 20.5865 26.2506 0
1 21.2041 17.5602 0
1 1.32709 17.5549 0
1 2.04532 18.7919 0
1 3.46496 18.7891 0
1 4.1814 20.0254 0
1 5.59793 20.0237 0
1 6.31408 21.258 0
1 7.73024 21.2563 0
1 8.44891 22.4889 0
1 9.86709 22.4885 0
1 10.5908 23.7222 0
1 12.0111 23.727 0
1 12.7421 24.9688 0
1 14.1616 24.9795 0
1 14.9013 26.2338 0
1 16.3216 26.2418 0
1 17.0741 27.5027 0
1 18.4928 27.506 0
1 19.2585 28.7786 0
1 20.6695 28.7697 0
1 21.2164 20.0366 0
1 1.33946 20.0315 0
1 2.0591 21.2676 0
1 3.47815 21.2627 0
1 4.19833 22.4979 0
1 5.61432 22.4924 0
1 6.33702 23.7254 0
1 7.7531 23.7191 0
1 8.47996 24.9497 0
1 9.89977 24.9452 0
1 10.6304 26.176 0
1 12.0551 26.1874 0
1 12.7936 27.4381 0
1 14.2198 27.4616 0
1 14.9807 28.7303 0
1 16.4087 28.7392 0
1 17.1891 30.015 0
1 18.6012 30.0328 0
1 19.3929 31.3506 0
1 20.8044 31.3367 0
1 21.2354 22.5147 0
1 1.35744 22.5081 0
1 2.0837 23.7459 0
1 3.50157 23.7372 0
1 4.2304 24.973 0
1 5.6454 24.9621 0
1 6.37808 26.1949 0
1 7.79269 26.1818 0
1 8.53137 27.4089 0
1 9.94777 27.3911 0
1 10.6825 28.6036 0
1 12.1044 28.6448 0
1 12.8716 29.9149 0
1 14.3213 29.9671 0
1 15.1495 31.2019 0
1 16.5449 31.2385 0
1 17.3049 32.4984 0
1 18.7397 32.629 0
1 19.7266 34.1274 0
1 21.094 33.9847 0
1 21.272 25.0011 0
1 1.39108 24.9905 0
1 2.12929 26.2331 0
1 3.54425 26.2174 0
1 4.28604 27.4559 0
1 5.69854 27.4369 0
1 6.44471 28.6721 0
1 7.85889 28.6521 0
1 8.61905 29.8896 0
1 10.0506 29.8138 0
1 11.0231 30.9057 0
1 11.9237 32.079 0
1 13.2527 32.0916 0
1 14.0146 33.2929 0
1 15.375 33.3187 0
1 16.1122 34.5369 0
1 17.4466 34.591 0
1 18.1398 35.7643 0
1 19.4147 35.5998 0
1 20.2131 36.8046 0
1 21.3374 27.5062 0
1 1.45098 27.4879 0
1 2.20725 28.7384 0
1 3.616 28.7106 0
1 4.3772 29.9527 0
1 5.7792 29.9202 0
1 6.53568 31.1509 0
1 7.9294 31.1292 0
1 8.58814 32.382 0
1 9.91466 32.6724 0
1 11.2556 33.3311 0
1 12.0347 34.5713 0
1 13.3935 34.5441 0
1 14.1593 35.7968 0
1 15.4948 35.7844 0
1 16.2491 0.153737 0
1 0.144951 30.0453 0
1 1.55201 30.0118 0
1 2.33963 31.2715 0
1 3.73487 31.2246 0
1 4.52268 32.4741 0
1 5.89966 32.4285 0
1 6.68596 33.6875 0
1 8.03129 33.6033 0
1 9.00063 34.7535 0
1 10.0955 35.8226 0
1 11.4499 35.7879 0
1 12.2398 0.164069 0
1 0.339997 32.641 0
1 1.72975 32.5694 0
1 2.5626 33.8374 0
1 3.92842 33.761 0
1 4.73941 35.0112 0
1 6.10137 34.9476 0
1 6.86471 36.2291 0
1 8.20664 36.7374 0
1 0.679143 35.2772 0
1 2.01579 35.1613 0
1 2.84141 36.4158 0
1 4.16842 36.3204 0
