296
Atoms. Timestep: 0
1 18.2696 0.709506 0
1 19.17 1.2293 0
1 20.3996 1.93921 0
1 14.0096 0.709606 0
1 14.91 1.2294 0
1 16.1396 1.93931 0
1 17.04 2.4591 0
1 18.2696 3.16901 0
1 19.17 3.6888 0
1 20.3996 4.39871 0
1 9.74965 0.709706 0
1 10.65 1.2295 0
1 11.8796 1.93941 0
1 12.78 2.4592 0
1 14.0096 3.16911 0
1 14.91 3.6889 0
1 16.1396 4.39881 0
1 17.04 4.9186 0
1 18.2696 5.62851 0
1 19.17 6.1483 0
1 20.3996 6.85821 0
1 5.48965 0.709806 0
1 6.39 1.2296 0
1 7.61965 1.93951 0
1 8.52 2.4593 0
1 9.74965 3.16921 0
1 10.65 3.689 0
1 11.8796 4.39891 0
1 12.78 4.9187 0
1 14.0096 5.62861 0
1 14.91 6.1484 0
1 16.1396 6.85831 0
1 17.04 7.3781 0
1 18.2696 8.08801 0
1 19.17 8.6078 0
1 20.3996 9.31771 0
1 0 0 0
1 1.22965 0.709906 0
1 2.13 1.2297 0
1 3.35965 1.93961 0
1 4.26 2.4594 0
1 5.48965 3.16931 0
1 6.39 3.6891 0
1 7.61965 4.39901 0
1 8.52 4.9188 0
1 9.74965 5.62871 0
1 10.65 6.1485 0
1 11.8796 6.85841 0
1 12.78 7.3782 0
1 14.0096 8.08811 0
1 14.91 8.6079 0
1 16.1396 9.31781 0
1 17.04 9.8376 0
1 18.2696 10.5475 0
1 19.17 11.0673 0
1 20.3996 11.7772 0
1 0 2.4595 0
1 1.22965 3.16941 0
1 2.13 3.6892 0
1 3.35965 4.39911 0
1 4.26 4.9189 0
1 5.48965 5.62881 0
1 6.39 6.1486 0
1 7.61965 6.85851 0
1 8.52 7.3783 0
1 9.74965 8.08821 0
1 10.65 8.608 0
1 11.8796 9.31791 0
1 12.78 9.8377 0
1 14.0096 10.5476 0
1 14.91 11.0674 0
1 16.1396 11.7773 0
1 17.04 12.2971 0
1 18.2696 13.007 0
1 19.17 13.5268 0
1 20.3996 14.2367 0
1 0 4.919 0
1 1.22965 5.62891 0
1 2.13 6.1487 0
1 3.35965 6.85861 0
1 4.26 7.3784 0
1 5.48965 8.08831 0
1 6.39 8.6081 0
1 7.61965 9.31801 0
1 8.52 9.8378 0
1 9.74965 10.5477 0
1 10.65 11.0675 0
1 11.8796 11.7774 0
1 12.78 12.2972 0
1 14.0096 13.0071 0
1 14.91 13.5269 0
1 16.1396 14.2368 0
1 17.04 14.7566 0
1 18.2696 15.4665 0
1 19.17 15.9863 0
1 20.3996 16.6962 0
1 0 7.3785 0
1 1.22965 8.08841 0
1 2.13 8.6082 0
1 3.35965 9.31811 0
1 4.26 9.8379 0
1 5.48965 10.5478 0
1 6.39 11.0676 0
1 7.61965 11.7775 0
1 8.52 12.2973 0
1 9.74965 13.0072 0
1 10.65 13.527 0
1 11.8796 14.2369 0
1 12.78 14.7567 0
1 14.0096 15.4666 0
1 14.91 15.9864 0
1 16.1396 16.6963 0
1 17.04 17.2161 0
1 18.2696 17.926 0
1 19.17 18.4458 0
1 20.3996 19.1557 0
1 0 9.838 0
1 1.22965 10.5479 0
1 2.13 11.0677 0
1 3.35965 11.7776 0
1 4.26 12.2974 0
1 5.48965 13.0073 0
1 6.39 13.5271 0
1 7.61965 14.237 0
1 8.52 14.7568 0
1 9.74965 15.4667 0
1 10.65 15.9865 0
1 11.8796 16.6964 0
1 12.78 17.2162 0
1 14.0096 17.9261 0
1 14.91 18.4459 0
1 16.1396 19.1558 0
1 17.04 19.6756 0
1 18.2696 20.3855 0
1 19.17 20.9053 0
1 20.3996 21.6152 0
1 0 12.2975 0
1 1.22965 13.0074 0
1 2.13 13.5272 0
1 3.35965 14.2371 0
1 4.26 14.7569 0
1 5.48965 15.4668 0
1 6.39 15.9866 0
1 7.61965 16.6965 0
1 8.52 17.2163 0
1 9.74965 17.9262 0
1 10.65 18.446 0
1 11.8796 19.1559 0
1 12.78 19.6757 0
1 14.0096 20.3856 0
1 14.91 20.9054 0
1 16.1396 21.6153 0
1 17.04 22.1351 0
1 18.2696 22.845 0
1 19.17 23.3648 0
1 20.3996 24.0747 0
1 0 14.757 0
1 1.22965 15.4669 0
1 2.13 15.9867 0
1 3.35965 16.6966 0
1 4.26 17.2164 0
1 5.48965 17.9263 0
1 6.39 18.4461 0
1 7.61965 19.156 0
1 8.52 19.6758 0
1 9.74965 20.3857 0
1 10.65 20.9055 0
1 11.8796 21.6154 0
1 12.78 22.1352 0
1 14.0096 22.8451 0
1 14.91 23.3649 0
1 16.1396 24.0748 0
1 17.04 24.5946 0
1 18.2696 25.3045 0
1 19.17 25.8243 0
1 20.3996 26.5342 0
1 0 17.2165 0
1 1.22965 17.9264 0
1 2.13 18.4462 0
1 3.35965 19.1561 0
1 4.26 19.6759 0
1 5.48965 20.3858 0
1 6.39 20.9056 0
1 7.61965 21.6155 0
1 8.52 22.1353 0
1 9.74965 22.8452 0
1 10.65 23.365 0
1 11.8796 24.0749 0
1 12.78 24.5947 0
1 14.0096 25.3046 0
1 14.91 25.8244 0
1 16.1396 26.5343 0
1 17.04 27.0541 0
1 18.2696 27.764 0
1 19.17 28.2838 0
1 20.3996 28.9937 0
1 0 19.676 0
1 1.22965 20.3859 0
1 2.13 20.9057 0
1 3.35965 21.6156 0
1 4.26 22.1354 0
1 5.48965 22.8453 0
1 6.39 23.3651 0
1 7.61965 24.075 0
1 8.52 24.5948 0
1 9.74965 25.3047 0
1 10.65 25.8245 0
1 11.8796 26.5344 0
1 12.78 27.0542 0
1 14.0096 27.7641 0
1 14.91 28.2839 0
1 16.1396 28.9938 0
1 17.04 29.5136 0
1 18.2696 30.2235 0
1 19.17 30.7433 0
1 20.3996 31.4532 0
1 0 22.1355 0
1 1.22965 22.8454 0
1 2.13 23.3652 0
1 3.35965 24.0751 0
1 4.26 24.5949 0
1 5.48965 25.3048 0
1 6.39 25.8246 0
1 7.61965 26.5345 0
1 8.52 27.0543 0
1 9.74965 27.7642 0
1 10.65 28.284 0
1 11.8796 28.9939 0
1 12.78 29.5137 0
1 14.0096 30.2236 0
1 14.91 30.7434 0
1 16.1396 31.4533 0
1 17.04 31.9731 0
1 18.2696 32.683 0
1 19.17 33.2028 0
1 20.3996 33.9127 0
1 0 24.595 0
1 1.22965 25.3049 0
1 2.13 25.8247 0
1 3.35965 26.5346 0
1 4.26 27.0544 0
1 5.48965 27.7643 0
1 6.39 28.2841 0
1 7.61965 28.994 0
1 8.52 29.5138 0
1 9.74965 30.2237 0
1 10.65 30.7435 0
1 11.8796 31.4534 0
1 12.78 31.9732 0
1 14.0096 32.6831 0
1 14.91 33.2029 0
1 16.1396 33.9128 0
1 17.04 34.4326 0
1 18.2696 35.1425 0
1 19.17 35.6623 0
1 20.3996 36.3722 0
1 0 27.0545 0
1 1.22965 27.7644 0
1 2.13 28.2842 0
1 3.35965 28.9941 0
1 4.26 29.5139 0
1 5.48965 30.2238 0
1 6.39 30.7436 0
1 7.61965 31.4535 0
1 8.52 31.9733 0
1 9.74965 32.6832 0
1 10.65 33.203 0
1 11.8796 33.9129 0
1 12.78 34.4327 0
1 14.0096 35.1426 0
1 14.91 35.6624 0
1 16.1396 36.3723 0
1 0 29.514 0
1 1.22965 30.2239 0
1 2.13 30.7437 0
1 3.35965 31.4536 0
1 4.26 31.9734 0
1 5.48965 32.6833 0
1 6.39 33.2031 0
1 7.61965 33.913 0
1 8.52 34.4328 0
1 9.74965 35.1427 0
1 10.65 35.6625 0
1 11.8796 36.3724 0
1 0 31.9735 0
1 1.22965 32.6834 0
1 2.13 33.2032 0
1 3.35965 33.9131 0
1 4.26 34.4329 0
1 5.48965 35.1428 0
1 6.39 35.6626 0
1 7.61965 36.3725 0
1 0 34.433 0
1 1.22965 35.1429 0
1 2.13 35.6627 0
1 3.35965 36.3726 0
