296
Atoms. Timestep: 400
1 17.5434 0.124127 0
1 18.3529 1.34267 0
1 19.6745 1.25473 0
1 13.5401 0.144806 0
1 14.3373 1.44758 0
1 15.6626 1.40044 0
1 16.4638 2.69317 0
1 17.7688 2.6425 0
1 18.5851 3.86154 0
1 19.9333 3.78931 0
1 9.60049 0.155338 0
1 10.3528 1.35478 0
1 11.6844 1.39411 0
1 12.3962 2.6726 0
1 13.7061 2.67651 0
1 14.4211 3.9174 0
1 15.8276 3.92465 0
1 16.5956 5.16546 0
1 17.9901 5.12687 0
1 18.7738 6.36868 0
1 20.16 6.34614 0
1 4.95517 0.676774 0
1 6.22489 0.622467 0
1 6.9807 1.87125 0
1 8.33492 1.92791 0
1 9.08227 3.14712 0
1 10.3854 3.45334 0
1 11.7387 3.90528 0
1 12.4493 5.22788 0
1 13.8353 5.18914 0
1 14.5636 6.4246 0
1 15.9506 6.39522 0
1 16.7397 7.68212 0
1 18.1204 7.6079 0
1 18.9118 8.88446 0
1 20.3216 8.86588 0
1 0.193858 36.6828 0
1 1.04453 1.00874 0
1 2.32517 0.884115 0
1 3.14829 2.09439 0
1 4.43333 1.94381 0
1 5.16001 3.18979 0
1 6.44288 3.11168 0
1 7.1419 4.33429 0
1 8.46918 4.41027 0
1 9.50917 5.41068 0
1 10.3645 6.54874 0
1 11.766 6.47763 0
1 12.5224 7.66358 0
1 13.9051 7.71054 0
1 14.6736 8.932 0
1 16.0951 8.91614 0
1 16.8207 10.1165 0
1 18.2495 10.1345 0
1 18.9794 11.3723 0
1 20.3988 11.3215 0
1 20.4764 2.46728 0
1 0.527275 2.35483 0
1 1.37495 3.59401 0
1 2.72165 3.47989 0
1 3.64038 4.86776 0
1 5.04181 4.72699 0
1 6.10517 6.17556 0
1 7.61638 6.38627 0
1 8.33844 7.67 0
1 9.7271 7.73156 0
1 10.4502 8.96307 0
1 11.8299 8.94769 0
1 12.5955 10.1636 0
1 13.993 10.1609 0
1 14.7421 11.4064 0
1 16.1505 11.3647 0
1 16.8854 12.6217 0
1 18.3096 12.6336 0
1 19.0501 13.8538 0
1 20.4838 13.8348 0
1 20.7753 5.02562 0
1 0.835822 4.92404 0
1 1.70166 6.23853 0
1 3.11056 6.13322 0
1 3.96013 7.48161 0
1 5.4251 7.47997 0
1 6.20733 8.80472 0
1 7.63431 8.87926 0
1 8.33526 10.1365 0
1 9.72866 10.1781 0
1 10.4616 11.4057 0
1 11.8857 11.4133 0
1 12.6801 12.644 0
1 14.0449 12.6605 0
1 14.7871 13.8885 0
1 16.1888 13.8798 0
1 16.932 15.0876 0
1 18.3383 15.0693 0
1 19.0612 16.3575 0
1 20.486 16.3112 0
1 20.9675 7.57089 0
1 1.07744 7.52245 0
1 1.90151 8.78615 0
1 3.33682 8.77331 0
1 4.08384 10.0377 0
1 5.5003 10.0471 0
1 6.25685 11.3616 0
1 7.64013 11.3563 0
1 8.37075 12.632 0
1 9.78703 12.6563 0
1 10.5274 13.8705 0
1 11.9232 13.8453 0
1 12.6774 15.1092 0
1 14.0706 15.1065 0
1 14.7977 16.3513 0
1 16.2397 16.3459 0
1 16.9507 17.571 0
1 18.3422 17.5756 0
1 19.0835 18.8042 0
1 20.5126 18.7683 0
1 21.0803 10.0933 0
1 1.23395 10.0752 0
1 1.99812 11.297 0
1 3.4064 11.3102 0
1 4.14354 12.5873 0
1 5.54899 12.5748 0
1 6.27331 13.8351 0
1 7.66397 13.8242 0
1 8.42674 15.0877 0
1 9.82612 15.1058 0
1 10.5636 16.3131 0
1 11.9582 16.3375 0
1 12.6352 17.5537 0
1 14.1037 17.5886 0
1 14.8098 18.8263 0
1 16.2126 18.8195 0
1 16.9489 20.0624 0
1 18.378 20.0188 0
1 19.0805 21.3075 0
1 20.5317 21.2997 0
1 21.1624 12.6038 0
1 1.30193 12.579 0
1 2.01879 13.8288 0
1 3.42336 13.852 0
1 4.14239 15.0469 0
1 5.61872 15.0504 0
1 6.28824 16.3577 0
1 7.70146 16.3293 0
1 8.38094 17.5376 0
1 9.85504 17.5571 0
1 10.559 18.7969 0
1 11.961 18.7688 0
1 12.6736 20.0199 0
1 14.109 20.0438 0
1 14.8137 21.2967 0
1 16.2819 21.2829 0
1 16.9436 22.5247 0
1 18.3826 22.5416 0
1 19.114 23.7985 0
1 20.5302 23.7662 0
1 21.1858 15.0759 0
1 1.31697 15.0931 0
1 2.04477 16.3395 0
1 3.44401 16.3189 0
1 4.19379 17.5387 0
1 5.6023 17.5461 0
1 6.30665 18.7953 0
1 7.69318 18.7852 0
1 8.41547 20.0166 0
1 9.88255 19.9974 0
1 10.5662 21.264 0
1 11.9824 21.2507 0
1 12.7002 22.4876 0
1 14.1186 22.5122 0
1 14.8535 23.7511 0
1 16.287 23.7605 0
1 17.0235 24.9956 0
1 18.4269 24.9936 0
1 19.1288 26.2551 0
1 20.5897 26.2607 0
1 21.199 17.5531 0
1 1.32662 17.5686 0
1 2.04519 18.8023 0
1 3.46784 18.7663 0
1 4.15185 20.0128 0
1 5.59656 20.0264 0
1 6.30066 21.2356 0
1 7.73008 21.2342 0
1 8.45149 22.4618 0
1 9.85488 22.4858 0
1 10.5983 23.7523 0
1 12.0138 23.7026 0
1 12.743 24.9598 0
1 14.1747 25.0268 0
1 14.8993 26.2564 0
1 16.327 26.2431 0
1 17.1038 27.5077 0
1 18.4681 27.4739 0
1 19.2828 28.8123 0
1 20.6871 28.7728 0
1 21.2201 20.0292 0
1 1.34005 20.0445 0
1 2.08295 21.2588 0
1 3.44527 21.2463 0
1 4.18916 22.5135 0
1 5.6219 22.4847 0
1 6.34351 23.7343 0
1 7.75075 23.7128 0
1 8.47702 24.9433 0
1 9.90185 24.9485 0
1 10.6291 26.1695 0
1 12.0457 26.2114 0
1 12.8198 27.4284 0
1 14.2398 27.4671 0
1 14.9739 28.7291 0
1 16.3868 28.7255 0
1 17.1638 30.0102 0
1 18.6056 30.0405 0
1 19.3743 31.3584 0
1 20.8118 31.352 0
1 21.2601 22.506 0
1 1.36602 22.5093 0
1 2.08093 23.7636 0
1 3.49062 23.7556 0
1 4.23839 24.9537 0
1 5.6712 24.9596 0
1 6.3559 26.1779 0
1 7.79941 26.1732 0
1 8.57033 27.3984 0
1 9.96858 27.4032 0
1 10.7083 28.5813 0
1 12.1393 28.6472 0
1 12.8745 29.9086 0
1 14.3061 29.9702 0
1 15.161 31.1971 0
1 16.5302 31.2394 0
1 17.2989 32.4919 0
1 18.7238 32.6105 0
1 19.7258 34.1119 0
1 21.1031 34.0041 0
1 21.2598 25.013 0
1 1.37713 24.9791 0
1 2.11049 26.2149 0
1 3.52271 26.2115 0
1 4.26026 27.4766 0
1 5.66202 27.4316 0
1 6.41183 28.6783 0
1 7.87923 28.6512 0
1 8.64311 29.9156 0
1 10.0681 29.8459 0
1 11.0226 30.9317 0
1 11.9173 32.0873 0
1 13.2704 32.099 0
1 14.0031 33.2826 0
1 15.3534 33.2728 0
1 16.1108 34.5278 0
1 17.4536 34.6179 0
1 18.1256 35.7698 0
1 19.4115 35.5943 0
1 20.2147 36.8377 0
1 0.0558736 27.51 0
1 1.45266 27.4988 0
1 2.19878 28.7541 0
1 3.61176 28.7298 0
1 4.35442 29.947 0
1 5.76462 29.9412 0
1 6.54201 31.1478 0
1 7.94418 31.1319 0
1 8.57798 32.3972 0
1 9.9076 32.6583 0
1 11.259 33.3571 0
1 11.9998 34.5915 0
1 13.4065 34.5293 0
1 14.1561 35.8131 0
1 15.475 35.791 0
1 16.2292 0.157125 0
1 0.153065 30.0561 0
1 1.55635 30.0497 0
1 2.35264 31.2843 0
1 3.72344 31.2417 0
1 4.51846 32.4515 0
1 5.92588 32.4268 0
1 6.67361 33.6897 0
1 8.01981 33.6022 0
1 9.03565 34.7388 0
1 10.1023 35.8289 0
1 11.4382 35.7795 0
1 12.2493 0.156676 0
1 0.359468 32.6225 0
1 1.742 32.5355 0
1 2.56878 33.8248 0
1 3.93851 33.7362 0
1 4.7485 34.9895 0
1 6.09809 34.9509 0
1 6.86347 36.2471 0
1 8.19772 36.7377 0
1 0.681669 35.3002 0
1 2.00676 35.1717 0
1 2.85715 36.3977 0
1 4.16286 36.3195 0
