296
Atoms. Timestep: 800
1 17.5121 0.123063 0
1 18.3166 1.37529 0
1 19.6652 1.28139 0
1 13.5422 0.135633 0
1 14.3135 1.47847 0
1 15.6683 1.43212 0
1 16.4802 2.74144 0
1 17.8141 2.69221 0
1 18.5979 3.89013 0
1 19.9473 3.79277 0
1 9.59519 0.152226 0
1 10.3605 1.32766 0
1 11.6917 1.37569 0
1 12.3828 2.65161 0
1 13.6822 2.69 0
1 14.3994 3.88302 0
1 15.8322 3.92364 0
1 16.5847 5.14916 0
1 18.0135 5.12906 0
1 18.7584 6.36204 0
1 20.1691 6.36858 0
1 4.93855 0.65856 0
1 6.21654 0.635534 0
1 6.96521 1.87994 0
1 8.35181 1.93649 0
1 9.05357 3.14272 0
1 10.3645 3.45226 0
1 11.7003 3.893 0
1 12.4639 5.22951 0
1 13.814 5.16461 0
1 14.5653 6.37777 0
1 15.9293 6.36713 0
1 16.7329 7.65972 0
1 18.1112 7.5964 0
1 18.9072 8.89824 0
1 20.3053 8.88828 0
1 0.199618 36.7366 0
1 1.04774 1.02841 0
1 2.35898 0.878256 0
1 3.18563 2.06291 0
1 4.44844 1.90202 0
1 5.13225 3.17266 0
1 6.41388 3.13657 0
1 7.12715 4.36384 0
1 8.48028 4.43781 0
1 9.51229 5.43388 0
1 10.3727 6.54284 0
1 11.8008 6.4624 0
1 12.484 7.65493 0
1 13.9013 7.67411 0
1 14.6618 8.9416 0
1 16.1103 8.9057 0
1 16.8199 10.0785 0
1 18.2255 10.1237 0
1 18.956 11.3666 0
1 20.3668 11.3137 0
1 20.4777 2.46811 0
1 0.543761 2.34061 0
1 1.38748 3.55399 0
1 2.74028 3.46874 0
1 3.62647 4.8945 0
1 4.99152 4.73249 0
1 6.07737 6.17727 0
1 7.60456 6.40011 0
1 8.34626 7.6666 0
1 9.72775 7.70892 0
1 10.4087 8.9521 0
1 11.8131 8.91304 0
1 12.5587 10.1418 0
1 13.9893 10.1463 0
1 14.7361 11.3933 0
1 16.1401 11.3197 0
1 16.8806 12.6172 0
1 18.3119 12.6368 0
1 19.0661 13.8421 0
1 20.5057 13.8358 0
1 20.776 5.02213 0
1 0.837881 4.89258 0
1 1.68699 6.2267 0
1 3.06963 6.14675 0
1 3.96339 7.4946 0
1 5.42733 7.4838 0
1 6.23291 8.79119 0
1 7.66463 8.86435 0
1 8.31174 10.1215 0
1 9.68143 10.1714 0
1 10.3926 11.4266 0
1 11.887 11.3837 0
1 12.6746 12.6429 0
1 14.0827 12.675 0
1 14.7752 13.9187 0
1 16.1878 13.8818 0
1 16.9478 15.0663 0
1 18.3529 15.0512 0
1 19.0499 16.3521 0
1 20.4824 16.3139 0
1 20.9371 7.6013 0
1 1.06934 7.52286 0
1 1.91059 8.80136 0
1 3.3455 8.78075 0
1 4.11227 10.0185 0
1 5.52266 10.0286 0
1 6.26055 11.3546 0
1 7.62898 11.355 0
1 8.33083 12.6292 0
1 9.74819 12.6718 0
1 10.5054 13.8468 0
1 11.9436 13.8224 0
1 12.6683 15.0907 0
1 14.0767 15.1217 0
1 14.8089 16.3732 0
1 16.2757 16.3443 0
1 16.9596 17.5798 0
1 18.3546 17.591 0
1 19.0921 18.7717 0
1 20.5209 18.7355 0
1 21.0484 10.0985 0
1 1.2606 10.0735 0
1 2.0357 11.2894 0
1 3.43735 11.287 0
1 4.1581 12.5968 0
1 5.57119 12.5927 0
1 6.3037 13.7976 0
1 7.65271 13.7954 0
1 8.41385 15.0801 0
1 9.85839 15.0772 0
1 10.5732 16.2865 0
1 11.9463 16.2964 0
1 12.5959 17.5227 0
1 14.0856 17.6027 0
1 14.8073 18.8566 0
1 16.2093 18.8519 0
1 16.98 20.0678 0
1 18.4017 20.0241 0
1 19.1047 21.3508 0
1 20.561 21.3219 0
1 21.184 12.5973 0
1 1.33742 12.5766 0
1 2.04023 13.8622 0
1 3.42587 13.8619 0
1 4.13025 15.0325 0
1 5.63079 15.0259 0
1 6.32791 16.358 0
1 7.67888 16.3444 0
1 8.34157 17.5102 0
1 9.85024 17.5197 0
1 10.5808 18.7461 0
1 11.9152 18.716 0
1 12.6625 19.9754 0
1 14.0993 20.0537 0
1 14.8265 21.3155 0
1 16.2945 21.3198 0
1 16.9808 22.5439 0
1 18.3667 22.5956 0
1 19.1107 23.8329 0
1 20.5307 23.8126 0
1 21.1987 15.0742 0
1 1.32375 15.122 0
1 2.04721 16.388 0
1 3.46116 16.3195 0
1 4.21363 17.5147 0
1 5.61559 17.5512 0
1 6.29292 18.7934 0
1 7.6402 18.7628 0
1 8.4061 19.9631 0
1 9.89534 19.9637 0
1 10.5872 21.235 0
1 11.9712 21.2263 0
1 12.6935 22.4573 0
1 14.1115 22.5188 0
1 14.8727 23.7941 0
1 16.2947 23.7548 0
1 17.049 24.9761 0
1 18.4208 25.008 0
1 19.0929 26.2372 0
1 20.5812 26.2819 0
1 21.21 17.5293 0
1 1.33072 17.595 0
1 2.03855 18.8014 0
1 3.47002 18.7462 0
1 4.11604 19.9815 0
1 5.56928 20.0127 0
1 6.29059 21.208 0
1 7.72139 21.1796 0
1 8.44254 22.4248 0
1 9.8489 22.4744 0
1 10.5958 23.753 0
1 12.0239 23.6954 0
1 12.7513 24.9807 0
1 14.1954 25.0791 0
1 14.9309 26.3039 0
1 16.3636 26.2537 0
1 17.0966 27.4819 0
1 18.4479 27.46 0
1 19.3209 28.8405 0
1 20.7366 28.8139 0
1 21.2518 20.0287 0
1 1.36468 20.0466 0
1 2.07634 21.2568 0
1 3.40822 21.224 0
1 4.15836 22.5209 0
1 5.61242 22.4815 0
1 6.38148 23.7278 0
1 7.75502 23.6925 0
1 8.48597 24.9269 0
1 9.91838 24.9668 0
1 10.64 26.1989 0
1 12.0608 26.203 0
1 12.8687 27.449 0
1 14.2681 27.4786 0
1 14.9651 28.711 0
1 16.3825 28.724 0
1 17.1316 29.9971 0
1 18.612 30.0745 0
1 19.3569 31.3732 0
1 20.8241 31.3783 0
1 21.2899 22.5169 0
1 1.40209 22.5132 0
1 2.06556 23.7843 0
1 3.49166 23.7774 0
1 4.23654 24.9509 0
1 5.67875 24.9393 0
1 6.33892 26.1601 0
1 7.82089 26.1499 0
1 8.62525 27.4087 0
1 10.0255 27.3814 0
1 10.7686 28.5997 0
1 12.2088 28.6352 0
1 12.8711 29.9077 0
1 14.2963 29.9641 0
1 15.1299 31.136 0
1 16.5112 31.2226 0
1 17.2824 32.5178 0
1 18.6967 32.5901 0
1 19.7133 34.0801 0
1 21.1324 34.0302 0
1 21.2453 25.0222 0
1 1.34514 24.9869 0
1 2.08072 26.1973 0
1 3.48124 26.2031 0
1 4.20366 27.4989 0
1 5.58415 27.4384 0
1 6.37262 28.6869 0
1 7.92344 28.6638 0
1 8.70109 29.9625 0
1 10.1317 29.888 0
1 11.0637 30.9656 0
1 11.941 32.1255 0
1 13.2917 32.1053 0
1 14.0088 33.2525 0
1 15.3338 33.2642 0
1 16.0874 34.5161 0
1 17.4471 34.6054 0
1 18.0949 35.7919 0
1 19.3969 35.6082 0
1 20.195 36.8918 0
1 0.0763416 27.5387 0
1 1.44302 27.5124 0
1 2.20135 28.8076 0
1 3.57283 28.7695 0
1 4.31956 29.9835 0
1 5.73432 29.9541 0
1 6.56452 31.1607 0
1 7.9682 31.153 0
1 8.57061 32.419 0
1 9.89937 32.6455 0
1 11.2371 33.4126 0
1 11.9864 34.5942 0
1 13.376 34.5349 0
1 14.1363 35.8152 0
1 15.4477 35.8104 0
1 16.1837 0.16159 0
1 0.181047 30.1056 0
1 1.57857 30.1078 0
1 2.36113 31.3173 0
1 3.71842 31.2457 0
1 4.52955 32.4237 0
1 5.93845 32.4178 0
1 6.68024 33.6972 0
1 7.98147 33.6289 0
1 9.13013 34.6953 0
1 10.1274 35.829 0
1 11.4135 35.7837 0
1 12.2357 0.134924 0
1 0.393608 32.601 0
1 1.77492 32.5037 0
1 2.57931 33.7886 0
1 3.95867 33.691 0
1 4.75619 34.9596 0
1 6.09904 34.9534 0
1 6.83755 36.293 0
1 8.15831 36.7131 0
1 0.670927 35.3566 0
1 2.02162 35.1833 0
1 2.84977 36.3881 0
1 4.18447 36.2915 0
