296
Atoms. Timestep: 650
1 17.5206 0.122253 0
1 18.3347 1.35901 0
1 19.6705 1.27025 0
1 13.5334 0.137934 0
1 14.3283 1.47084 0
1 15.6678 1.41237 0
1 16.4817 2.72723 0
1 17.7896 2.67266 0
1 18.5931 3.87784 0
1 19.9404 3.79259 0
1 9.60444 0.152457 0
1 10.3575 1.33677 0
1 11.6957 1.37906 0
1 12.3899 2.66181 0
1 13.6881 2.68462 0
1 14.398 3.89255 0
1 15.8309 3.92477 0
1 16.5901 5.15706 0
1 18.007 5.12685 0
1 18.7667 6.3644 0
1 20.1632 6.36488 0
1 4.94835 0.671489 0
1 6.21186 0.629455 0
1 6.9617 1.87906 0
1 8.34768 1.93475 0
1 9.0773 3.13977 0
1 10.3641 3.45361 0
1 11.7162 3.89873 0
1 12.4653 5.23358 0
1 13.8307 5.17398 0
1 14.5624 6.39562 0
1 15.9354 6.37399 0
1 16.7389 7.67756 0
1 18.1104 7.59388 0
1 18.9105 8.89383 0
1 20.3122 8.88359 0
1 0.192218 36.7131 0
1 1.05111 1.01941 0
1 2.34156 0.88421 0
1 3.17078 2.07741 0
1 4.44743 1.91453 0
1 5.14342 3.17562 0
1 6.42593 3.1272 0
1 7.13938 4.34777 0
1 8.47101 4.43438 0
1 9.51019 5.42369 0
1 10.367 6.54743 0
1 11.7858 6.4722 0
1 12.5027 7.64666 0
1 13.8996 7.69917 0
1 14.6679 8.93912 0
1 16.109 8.91325 0
1 16.8176 10.0875 0
1 18.2393 10.1312 0
1 18.9639 11.3708 0
1 20.3771 11.3088 0
1 20.4732 2.46617 0
1 0.538147 2.34659 0
1 1.38295 3.56892 0
1 2.73383 3.47267 0
1 3.6302 4.89126 0
1 5.01411 4.72986 0
1 6.08895 6.17424 0
1 7.60843 6.40073 0
1 8.3459 7.66517 0
1 9.72785 7.71519 0
1 10.4308 8.9592 0
1 11.8161 8.92975 0
1 12.5786 10.1491 0
1 13.9906 10.1508 0
1 14.7397 11.4013 0
1 16.1449 11.3343 0
1 16.8824 12.6178 0
1 18.3113 12.6415 0
1 19.0607 13.8485 0
1 20.5006 13.8337 0
1 20.7797 5.02336 0
1 0.835683 4.90292 0
1 1.69507 6.23781 0
1 3.09034 6.13108 0
1 3.95735 7.49066 0
1 5.42701 7.48471 0
1 6.22453 8.79569 0
1 7.65688 8.87432 0
1 8.32113 10.1257 0
1 9.69675 10.1758 0
1 10.4191 11.4151 0
1 11.8819 11.3989 0
1 12.6901 12.6438 0
1 14.0627 12.6734 0
1 14.7825 13.9077 0
1 16.1861 13.8842 0
1 16.9428 15.0723 0
1 18.3445 15.0526 0
1 19.055 16.3633 0
1 20.484 16.3093 0
1 20.9498 7.58537 0
1 1.06997 7.52208 0
1 1.90918 8.79298 0
1 3.34706 8.78062 0
1 4.09783 10.0252 0
1 5.51133 10.0347 0
1 6.26498 11.3644 0
1 7.6321 11.3528 0
1 8.34803 12.634 0
1 9.76602 12.6716 0
1 10.517 13.8578 0
1 11.9278 13.825 0
1 12.6768 15.1002 0
1 14.0702 15.1126 0
1 14.8023 16.3646 0
1 16.2643 16.3466 0
1 16.9592 17.5733 0
1 18.344 17.5858 0
1 19.0902 18.7874 0
1 20.521 18.7426 0
1 21.0598 10.0975 0
1 1.25076 10.0781 0
1 2.02311 11.286 0
1 3.42457 11.2988 0
1 4.15431 12.5955 0
1 5.56054 12.5818 0
1 6.28922 13.8155 0
1 7.65129 13.8018 0
1 8.42575 15.082 0
1 9.84249 15.0935 0
1 10.5741 16.2942 0
1 11.9515 16.3174 0
1 12.6028 17.5335 0
1 14.0971 17.5993 0
1 14.8095 18.8454 0
1 16.205 18.8382 0
1 16.9653 20.0689 0
1 18.3923 20.0136 0
1 19.0896 21.3359 0
1 20.5513 21.3172 0
1 21.1738 12.6049 0
1 1.32485 12.578 0
1 2.03034 13.8456 0
1 3.42178 13.8662 0
1 4.13153 15.0313 0
1 5.63812 15.0311 0
1 6.3073 16.37 0
1 7.68822 16.3392 0
1 8.34913 17.516 0
1 9.85681 17.5374 0
1 10.5727 18.7729 0
1 11.9342 18.7336 0
1 12.6654 19.993 0
1 14.1049 20.0503 0
1 14.8177 21.3109 0
1 16.2992 21.3016 0
1 16.9558 22.534 0
1 18.3719 22.5742 0
1 19.1126 23.8255 0
1 20.528 23.791 0
1 21.191 15.0731 0
1 1.32167 15.1127 0
1 2.04958 16.371 0
1 3.44921 16.3213 0
1 4.21045 17.5226 0
1 5.61279 17.5468 0
1 6.30352 18.7965 0
1 7.65837 18.7731 0
1 8.40657 19.9888 0
1 9.89848 19.9734 0
1 10.5771 21.2515 0
1 11.9758 21.2358 0
1 12.6955 22.4681 0
1 14.113 22.5167 0
1 14.8637 23.7715 0
1 16.2948 23.7586 0
1 17.0422 24.9824 0
1 18.4248 24.9973 0
1 19.0987 26.2449 0
1 20.587 26.2742 0
1 21.2029 17.5386 0
1 1.32807 17.5861 0
1 2.04142 18.8049 0
1 3.47038 18.7502 0
1 4.12525 19.9939 0
1 5.58351 20.0216 0
1 6.29264 21.2158 0
1 7.7261 21.2019 0
1 8.44824 22.4362 0
1 9.84764 22.4807 0
1 10.5992 23.7622 0
1 12.0197 23.6916 0
1 12.7468 24.9667 0
1 14.1878 25.066 0
1 14.9128 26.2864 0
1 16.3462 26.2482 0
1 17.1103 27.4969 0
1 18.4504 27.4574 0
1 19.3086 28.8355 0
1 20.7159 28.7922 0
1 21.2362 20.0266 0
1 1.35238 20.0498 0
1 2.08724 21.2553 0
1 3.41712 21.2303 0
1 4.17141 22.5221 0
1 5.6192 22.4813 0
1 6.36505 23.735 0
1 7.75129 23.7019 0
1 8.47962 24.9335 0
1 9.91103 24.9584 0
1 10.6317 26.1828 0
1 12.0494 26.2138 0
1 12.8498 27.4358 0
1 14.2592 27.4732 0
1 14.9672 28.7199 0
1 16.3783 28.7211 0
1 17.1398 30.0024 0
1 18.6099 30.0589 0
1 19.3603 31.3678 0
1 20.8197 31.3693 0
1 21.2816 22.5073 0
1 1.38699 22.5112 0
1 2.07199 23.7793 0
1 3.48856 23.7721 0
1 4.24041 24.9463 0
1 5.68285 24.9491 0
1 6.34145 26.1642 0
1 7.81192 26.1589 0
1 8.60796 27.4009 0
1 10.0025 27.3942 0
1 10.7425 28.5842 0
1 12.1842 28.6408 0
1 12.8721 29.9069 0
1 14.2966 29.9699 0
1 15.1536 31.158 0
1 16.5177 31.2324 0
1 17.2918 32.5033 0
1 18.7057 32.5935 0
1 19.7206 34.0929 0
1 21.1202 34.0226 0
1 21.2494 25.0203 0
1 1.35797 24.9789 0
1 2.09125 26.2004 0
1 3.49674 26.2054 0
1 4.22692 27.4939 0
1 5.61311 27.4328 0
1 6.38392 28.6842 0
1 7.9058 28.6563 0
1 8.6775 29.9461 0
1 10.1024 29.8755 0
1 11.0413 30.9544 0
1 11.9346 32.1044 0
1 13.2828 32.1063 0
1 14.0037 33.2638 0
1 15.3357 33.2622 0
1 16.0996 34.5194 0
1 17.4538 34.6189 0
1 18.1059 35.7828 0
1 19.4041 35.5982 0
1 20.2054 36.8734 0
1 0.0718213 27.5237 0
1 1.44862 27.5083 0
1 2.19759 28.7837 0
1 3.59318 28.7539 0
1 4.3309 29.9622 0
1 5.74534 29.9539 0
1 6.55528 31.1528 0
1 7.95957 31.1418 0
1 8.57203 32.4113 0
1 9.8964 32.6494 0
1 11.2501 33.3918 0
1 11.9834 34.5981 0
1 13.3957 34.528 0
1 14.1464 35.8192 0
1 15.4565 35.8028 0
1 16.2004 0.160258 0
1 0.168184 30.082 0
1 1.56807 30.0884 0
1 2.36021 31.3051 0
1 3.71709 31.2491 0
1 4.52228 32.4312 0
1 5.93986 32.4224 0
1 6.67452 33.6934 0
1 7.99341 33.6161 0
1 9.08926 34.7146 0
1 10.1223 35.828 0
1 11.4195 35.7795 0
1 12.2464 0.144193 0
1 0.381537 32.606 0
1 1.76167 32.5082 0
1 2.57507 33.8045 0
1 3.95138 33.7073 0
1 4.75463 34.9692 0
1 6.09741 34.9532 0
1 6.85254 36.2742 0
1 8.16997 36.7214 0
1 0.676371 35.334 0
1 2.01184 35.1799 0
1 2.85675 36.388 0
1 4.17297 36.3063 0
