296
Atoms. Timestep: 1050
1 17.5011 0.135085 0
1 18.2943 1.40776 0
1 19.6475 1.3012 0
1 13.5622 0.139008 0
1 14.2867 1.47506 0
1 15.6566 1.48079 0
1 16.4626 2.74522 0
1 17.8468 2.72361 0
1 18.6142 3.90636 0
1 19.9591 3.79535 0
1 9.56174 0.149332 0
1 10.3519 1.3294 0
1 11.6647 1.37518 0
1 12.3637 2.63803 0
1 13.6846 2.6886 0
1 14.423 3.88863 0
1 15.8303 3.92057 0
1 16.5763 5.13596 0
1 18.0072 5.13749 0
1 18.7492 6.36173 0
1 20.1738 6.36023 0
1 4.92769 0.62277 0
1 6.23434 0.647271 0
1 6.99686 1.87615 0
1 8.34805 1.93164 0
1 8.99622 3.16242 0
1 10.3786 3.44381 0
1 11.6805 3.8811 0
1 12.4378 5.20657 0
1 13.7786 5.14707 0
1 14.5665 6.35759 0
1 15.931 6.36258 0
1 16.7153 7.61292 0
1 18.1206 7.6147 0
1 18.8934 8.89803 0
1 20.2899 8.8843 0
1 0.215492 36.779 0
1 1.04161 1.04207 0
1 2.3842 0.860929 0
1 3.20183 2.03677 0
1 4.43663 1.89632 0
1 5.11355 3.18174 0
1 6.3993 3.14632 0
1 7.08893 4.36904 0
1 8.49736 4.42161 0
1 9.51698 5.44895 0
1 10.3917 6.53001 0
1 11.8083 6.44214 0
1 12.4669 7.68437 0
1 13.9041 7.61919 0
1 14.6554 8.92916 0
1 16.0925 8.88196 0
1 16.8267 10.0833 0
1 18.1978 10.1035 0
1 18.9471 11.3571 0
1 20.3638 11.3401 0
1 20.4963 2.47743 0
1 0.547887 2.33292 0
1 1.39257 3.53695 0
1 2.74795 3.46039 0
1 3.61581 4.87932 0
1 4.95659 4.74205 0
1 6.05307 6.18774 0
1 7.60698 6.41029 0
1 8.34089 7.67134 0
1 9.7208 7.71077 0
1 10.3692 8.92997 0
1 11.8053 8.88774 0
1 12.5251 10.1303 0
1 13.9797 10.1446 0
1 14.7342 11.373 0
1 16.1332 11.3115 0
1 16.8778 12.6166 0
1 18.3101 12.6098 0
1 19.0726 13.8306 0
1 20.5062 13.839 0
1 20.7664 5.01879 0
1 0.843439 4.88485 0
1 1.66681 6.19755 0
1 3.03699 6.19088 0
1 3.97711 7.50004 0
1 5.4258 7.47443 0
1 6.24048 8.78519 0
1 7.65399 8.84135 0
1 8.30348 10.1197 0
1 9.66361 10.1627 0
1 10.3646 11.441 0
1 11.8922 11.3611 0
1 12.6296 12.6334 0
1 14.1055 12.6659 0
1 14.7715 13.926 0
1 16.1959 13.8712 0
1 16.9543 15.068 0
1 18.3685 15.0632 0
1 19.0495 16.3149 0
1 20.4845 16.3218 0
1 20.9252 7.62994 0
1 1.06934 7.52948 0
1 1.90858 8.81632 0
1 3.33549 8.77196 0
1 4.13969 10.0126 0
1 5.54515 10.0232 0
1 6.24231 11.3239 0
1 7.62064 11.36 0
1 8.30997 12.6129 0
1 9.71231 12.6499 0
1 10.4894 13.8303 0
1 11.9758 13.8321 0
1 12.6484 15.0723 0
1 14.0927 15.1409 0
1 14.8217 16.3822 0
1 16.2775 16.3408 0
1 16.9576 17.5996 0
1 18.3789 17.5866 0
1 19.0971 18.7524 0
1 20.5159 18.7415 0
1 21.039 10.0969 0
1 1.26805 10.0602 0
1 2.04942 11.3083 0
1 3.45851 11.2674 0
1 4.162 12.5921 0
1 5.58993 12.6053 0
1 6.31931 13.7739 0
1 7.66731 13.7995 0
1 8.38371 15.076 0
1 9.87293 15.0448 0
1 10.5588 16.2701 0
1 11.9367 16.2577 0
1 12.6101 17.5082 0
1 14.0627 17.6009 0
1 14.7976 18.8712 0
1 16.2347 18.8687 0
1 17.0008 20.0677 0
1 18.416 20.0589 0
1 19.1404 21.3637 0
1 20.572 21.3213 0
1 21.2001 12.576 0
1 1.35097 12.5745 0
1 2.05821 13.8881 0
1 3.44018 13.839 0
1 4.14585 15.0526 0
1 5.5954 15.0292 0
1 6.35544 16.3098 0
1 7.67203 16.3389 0
1 8.35106 17.516 0
1 9.82989 17.4845 0
1 10.5751 18.6907 0
1 11.8997 18.6953 0
1 12.6559 19.9566 0
1 14.0919 20.0528 0
1 14.8437 21.3187 0
1 16.2755 21.3491 0
1 17.0254 22.5706 0
1 18.3786 22.6203 0
1 19.1052 23.8345 0
1 20.5412 23.8459 0
1 21.2148 15.0841 0
1 1.32763 15.1312 0
1 2.03769 16.3997 0
1 3.48873 16.3138 0
1 4.2057 17.5113 0
1 5.61362 17.5563 0
1 6.25797 18.7789 0
1 7.63321 18.7412 0
1 8.4088 19.9174 0
1 9.87084 19.9486 0
1 10.5986 21.1979 0
1 11.9682 21.2069 0
1 12.6943 22.4514 0
1 14.1167 22.5214 0
1 14.8866 23.8344 0
1 16.2975 23.7561 0
1 17.0459 24.9811 0
1 18.4133 25.0294 0
1 19.1117 26.2341 0
1 20.5649 26.2893 0
1 21.2222 17.5255 0
1 1.33774 17.5978 0
1 2.03961 18.7901 0
1 3.46213 18.7487 0
1 4.11948 19.9669 0
1 5.5401 19.9877 0
1 6.2864 21.2023 0
1 7.71076 21.1477 0
1 8.43234 22.415 0
1 9.86234 22.455 0
1 10.59 23.7182 0
1 12.0261 23.7163 0
1 12.7653 25.0132 0
1 14.2095 25.0775 0
1 14.9709 26.3187 0
1 16.3894 26.2642 0
1 17.0582 27.4584 0
1 18.4606 27.4806 0
1 19.3286 28.8371 0
1 20.7653 28.8612 0
1 21.2797 20.0369 0
1 1.37957 20.0325 0
1 2.04898 21.2624 0
1 3.41077 21.2247 0
1 4.14321 22.508 0
1 5.59963 22.4811 0
1 6.39496 23.7015 0
1 7.76958 23.6731 0
1 8.50552 24.9188 0
1 9.92746 24.9767 0
1 10.6748 26.2194 0
1 12.0936 26.18 0
1 12.8989 27.4733 0
1 14.2789 27.4932 0
1 14.9701 28.6998 0
1 16.3994 28.7292 0
1 17.1388 29.9914 0
1 18.6145 30.0974 0
1 19.3622 31.381 0
1 20.8316 31.3886 0
1 21.2939 22.5483 0
1 1.41268 22.5195 0
1 2.06217 23.7816 0
1 3.49565 23.7742 0
1 4.2203 24.969 0
1 5.65794 24.9263 0
1 6.34305 26.1617 0
1 7.83295 26.1436 0
1 8.63949 27.423 0
1 10.0555 27.3726 0
1 10.8211 28.6362 0
1 12.2287 28.6351 0
1 12.8824 29.9071 0
1 14.3039 29.9391 0
1 15.096 31.1027 0
1 16.495 31.2027 0
1 17.2813 32.5058 0
1 18.6882 32.6017 0
1 19.6983 34.0666 0
1 21.1469 34.0329 0
1 21.2428 25.0282 0
1 1.32747 25.0103 0
1 2.06616 26.2086 0
1 3.46194 26.2061 0
1 4.16397 27.4954 0
1 5.55634 27.4547 0
1 6.36588 28.6902 0
1 7.95077 28.6834 0
1 8.7376 29.9783 0
1 10.1892 29.895 0
1 11.115 30.9814 0
1 11.9473 32.1735 0
1 13.2752 32.1084 0
1 14.0147 33.2497 0
1 15.3274 33.2827 0
1 16.0618 34.5168 0
1 17.4238 34.5941 0
1 18.0844 35.7996 0
1 19.3821 35.6379 0
1 20.1782 36.9096 0
1 0.0715482 27.5736 0
1 1.43149 27.5187 0
1 2.20974 28.8497 0
1 3.5313 28.7946 0
1 4.31223 30.0273 0
1 5.72522 29.9447 0
1 6.57464 31.178 0
1 7.98046 31.1809 0
1 8.57502 32.4318 0
1 9.91426 32.6443 0
1 11.2079 33.4367 0
1 12.0053 34.5843 0
1 13.3359 34.5511 0
1 14.1161 35.7985 0
1 15.4368 35.8139 0
1 16.1687 0.165635 0
1 0.206759 30.1515 0
1 1.59603 30.1293 0
1 2.36299 31.3245 0
1 3.73065 31.234 0
1 4.548 32.4235 0
1 5.92257 32.4099 0
1 6.68874 33.707 0
1 7.98593 33.6529 0
1 9.20675 34.6568 0
1 10.1136 35.8364 0
1 11.4262 35.7937 0
1 12.2105 0.121733 0
1 0.406415 32.6107 0
1 1.79041 32.5277 0
1 2.58912 33.7614 0
1 3.96566 33.6741 0
1 4.75698 34.9498 0
1 6.10367 34.9535 0
1 6.80563 36.3201 0
1 8.1591 36.7041 0
1 0.667887 35.3872 0
1 2.03831 35.1871 0
1 2.84324 36.3938 0
1 4.19757 36.26 0
