296
Atoms. Timestep: 950
1 17.5055 0.128324 0
1 18.3009 1.39428 0
1 19.6558 1.29314 0
1 13.555 0.13638 0
1 14.2966 1.47876 0
1 15.6634 1.45972 0
1 16.4711 2.7466 0
1 17.8367 2.71138 0
1 18.6062 3.90083 0
1 19.9544 3.79351 0
1 9.57763 0.151002 0
1 10.3566 1.32618 0
1 11.6784 1.37503 0
1 12.3724 2.64238 0
1 13.682 2.69136 0
1 14.4115 3.88275 0
1 15.8318 3.92194 0
1 16.5793 5.14088 0
1 18.0126 5.13348 0
1 18.7515 6.36103 0
1 20.1736 6.36558 0
1 4.93023 0.638631 0
1 6.22786 0.642002 0
1 6.98116 1.87812 0
1 8.35299 1.93411 0
1 9.01986 3.15263 0
1 10.3724 3.4485 0
1 11.6868 3.88618 0
1 12.4517 5.21822 0
1 13.7924 5.15466 0
1 14.5675 6.36379 0
1 15.9284 6.3641 0
1 16.7233 7.6332 0
1 18.1163 7.6061 0
1 18.9005 8.8996 0
1 20.2968 8.88739 0
1 0.2096 36.7618 0
1 1.04308 1.03717 0
1 2.37582 0.868599 0
1 3.19739 2.04719 0
1 4.44283 1.89649 0
1 5.12102 3.17597 0
1 6.40393 3.14357 0
1 7.10579 4.37011 0
1 8.49164 4.43084 0
1 9.51511 5.44365 0
1 10.3827 6.53553 0
1 11.8094 6.45038 0
1 12.4701 7.67213 0
1 13.9035 7.64162 0
1 14.6571 8.9374 0
1 16.1028 8.8931 0
1 16.8242 10.0788 0
1 18.2088 10.1124 0
1 18.9501 11.3609 0
1 20.3625 11.3278 0
1 20.4876 2.4727 0
1 0.547067 2.33537 0
1 1.39093 3.5423 0
1 2.74539 3.46426 0
1 3.62159 4.88802 0
1 4.96939 4.73719 0
1 6.06385 6.18284 0
1 7.60486 6.40518 0
1 8.34391 7.66958 0
1 9.72494 7.70822 0
1 10.3843 8.94024 0
1 11.81 8.89661 0
1 12.5374 10.1351 0
1 13.9851 10.1446 0
1 14.734 11.382 0
1 16.1355 11.3121 0
1 16.8789 12.6171 0
1 18.3115 12.6232 0
1 19.0704 13.835 0
1 20.5068 13.8382 0
1 20.7701 5.02043 0
1 0.841167 4.88643 0
1 1.67594 6.20982 0
1 3.04855 6.17205 0
1 3.97211 7.49778 0
1 5.42682 7.47926 0
1 6.23844 8.78752 0
1 7.66218 8.85099 0
1 8.30546 10.1198 0
1 9.66989 10.1663 0
1 10.3727 11.4371 0
1 11.8922 11.3688 0
1 12.6484 12.6387 0
1 14.0998 12.6713 0
1 14.7705 13.9251 0
1 16.192 13.8761 0
1 16.9518 15.0654 0
1 18.3625 15.0567 0
1 19.0476 16.3317 0
1 20.4825 16.3194 0
1 20.9279 7.61895 0
1 1.0698 7.52584 0
1 1.90982 8.81078 0
1 3.33983 8.7767 0
1 4.12876 10.0142 0
1 5.53603 10.0248 0
1 6.25045 11.3377 0
1 7.62501 11.3584 0
1 8.31629 12.6203 0
1 9.72734 12.6621 0
1 10.4945 13.8363 0
1 11.9639 13.8268 0
1 12.6563 15.0798 0
1 14.0861 15.1331 0
1 14.8168 16.3797 0
1 16.2798 16.3416 0
1 16.9582 17.5905 0
1 18.3691 17.5909 0
1 19.0943 18.7579 0
1 20.5181 18.7366 0
1 21.041 10.098 0
1 1.26687 10.0657 0
1 2.04493 11.2995 0
1 3.45014 11.2745 0
1 4.16043 12.5951 0
1 5.58273 12.6025 0
1 6.31549 13.7813 0
1 7.66044 13.7959 0
1 8.39631 15.0781 0
1 9.87056 15.0578 0
1 10.5663 16.2783 0
1 11.9406 16.2729 0
1 12.601 17.5136 0
1 14.0717 17.6028 0
1 14.8024 18.8661 0
1 16.2219 18.8634 0
1 16.9937 20.0665 0
1 18.4105 20.0431 0
1 19.125 21.3606 0
1 20.5681 21.3222 0
1 21.1944 12.5851 0
1 1.34671 12.5752 0
1 2.05111 13.8791 0
1 3.43341 13.8494 0
1 4.13654 15.0425 0
1 5.61161 15.0263 0
1 6.34721 16.332 0
1 7.67267 16.3442 0
1 8.34444 17.5118 0
1 9.83902 17.4992 0
1 10.5814 18.7136 0
1 11.9024 18.7027 0
1 12.6592 19.962 0
1 14.0941 20.0545 0
1 14.8372 21.3176 0
1 16.2831 21.3385 0
1 17.0094 22.5583 0
1 18.3695 22.6128 0
1 19.1077 23.8346 0
1 20.5363 23.834 0
1 21.2083 15.0788 0
1 1.32575 15.1283 0
1 2.04182 16.3981 0
1 3.47735 16.3162 0
1 4.21062 17.5109 0
1 5.61554 17.5554 0
1 6.27419 18.7863 0
1 7.63184 18.7504 0
1 8.40775 19.9352 0
1 9.88294 19.9556 0
1 10.5957 21.2136 0
1 11.9684 21.2156 0
1 12.6932 22.4515 0
1 14.1132 22.5203 0
1 14.8816 23.8192 0
1 16.295 23.7532 0
1 17.0493 24.976 0
1 18.4159 25.0213 0
1 19.1002 26.2329 0
1 20.5722 26.2873 0
1 21.2178 17.5244 0
1 1.33464 17.599 0
1 2.03781 18.7951 0
1 3.46654 18.7467 0
1 4.1153 19.9715 0
1 5.55224 19.9991 0
1 6.28876 21.2039 0
1 7.71536 21.1592 0
1 8.43588 22.4178 0
1 9.85544 22.4643 0
1 10.5917 23.7342 0
1 12.0262 23.7063 0
1 12.7584 24.9997 0
1 14.2034 25.0813 0
1 14.954 26.3156 0
1 16.3807 26.26 0
1 17.0738 27.4663 0
1 18.453 27.4706 0
1 19.3276 28.8393 0
1 20.7553 28.841 0
1 21.269 20.0332 0
1 1.37555 20.0391 0
1 2.05968 21.26 0
1 3.40745 21.2226 0
1 4.14759 22.5146 0
1 5.60442 22.4819 0
1 6.39287 23.714 0
1 7.76249 23.6815 0
1 8.49642 24.9213 0
1 9.92445 24.9741 0
1 10.6575 26.2137 0
1 12.0785 26.1883 0
1 12.8871 27.4642 0
1 14.2745 27.4864 0
1 14.9665 28.7031 0
1 16.392 28.7279 0
1 17.1325 29.9929 0
1 18.6135 30.0894 0
1 19.3585 31.3779 0
1 20.8283 31.385 0
1 21.2937 22.5336 0
1 1.41187 22.5163 0
1 2.06191 23.7842 0
1 3.49504 23.7772 0
1 4.22826 24.961 0
1 5.66763 24.9303 0
1 6.34055 26.1599 0
1 7.82877 26.1444 0
1 8.63585 27.4177 0
1 10.045 27.3724 0
1 10.7987 28.6211 0
1 12.2241 28.6329 0
1 12.8749 29.9082 0
1 14.2999 29.9517 0
1 15.1075 31.1158 0
1 16.5025 31.211 0
1 17.2809 32.5191 0
1 18.6904 32.5946 0
1 19.7045 34.0702 0
1 21.1425 34.0333 0
1 21.2433 25.0246 0
1 1.33365 24.9999 0
1 2.0717 26.2013 0
1 3.46855 26.2035 0
1 4.17987 27.4983 0
1 5.56359 27.4474 0
1 6.36693 28.6889 0
1 7.94027 28.6745 0
1 8.72357 29.9739 0
1 10.165 29.8941 0
1 11.093 30.9749 0
1 11.942 32.1539 0
1 13.2872 32.1056 0
1 14.0138 33.2476 0
1 15.3293 33.2735 0
1 16.0725 34.5154 0
1 17.4347 34.5934 0
1 18.0875 35.798 0
1 19.3883 35.6242 0
1 20.1843 36.9044 0
1 0.0752292 27.5583 0
1 1.43622 27.5158 0
1 2.20674 28.8329 0
1 3.54825 28.7846 0
1 4.31325 30.0099 0
1 5.72709 29.9492 0
1 6.57177 31.171 0
1 7.97579 31.1684 0
1 8.57184 32.4264 0
1 9.91075 32.6432 0
1 11.2201 33.4289 0
1 11.9969 34.5877 0
1 13.3515 34.5448 0
1 14.1245 35.8062 0
1 15.4408 35.8145 0
1 16.1725 0.163304 0
1 0.195945 30.1326 0
1 1.58945 30.1221 0
1 2.36149 31.324 0
1 3.72434 31.2386 0
1 4.53996 32.4218 0
1 5.93025 32.4128 0
1 6.68613 33.7025 0
1 7.97969 33.6431 0
1 9.1747 34.6732 0
1 10.1224 35.8327 0
1 11.4176 35.7895 0
1 12.2208 0.126368 0
1 0.402527 32.6035 0
1 1.78562 32.5133 0
1 2.58461 33.772 0
1 3.96372 33.6791 0
1 4.75674 34.953 0
1 6.1018 34.9533 0
1 6.81846 36.3104 0
1 8.15461 36.7077 0
1 0.667545 35.3764 0
1 2.03235 35.1857 0
1 2.84387 36.3913 0
1 4.19419 36.2733 0
