296
Atoms. Timestep: 750
1 17.5146 0.122406 0
1 18.3227 1.36948 0
1 19.6673 1.2776 0
1 13.5385 0.136116 0
1 14.3189 1.47673 0
1 15.6687 1.42454 0
1 16.4817 2.73766 0
1 17.8057 2.68572 0
1 18.596 3.8861 0
1 19.9449 3.79275 0
1 9.59927 0.152328 0
1 10.3601 1.33005 0
1 11.6941 1.37637 0
1 12.3855 2.65506 0
1 13.6836 2.68847 0
1 14.3976 3.88532 0
1 15.8319 3.92409 0
1 16.5866 5.15191 0
1 18.012 5.12808 0
1 18.7613 6.36273 0
1 20.1671 6.36812 0
1 4.9419 0.663726 0
1 6.21401 0.633431 0
1 6.96258 1.87999 0
1 8.35066 1.93639 0
1 9.06296 3.14096 0
1 10.3633 3.4529 0
1 11.7054 3.89504 0
1 12.4655 5.23165 0
1 13.8204 5.16774 0
1 14.5642 6.38342 0
1 15.9308 6.36886 0
1 16.7353 7.66682 0
1 18.1104 7.59461 0
1 18.9086 8.89703 0
1 20.3077 8.88736 0
1 0.196647 36.7285 0
1 1.04925 1.02535 0
1 2.35296 0.880721 0
1 3.18087 2.06795 0
1 4.4489 1.90544 0
1 5.13598 3.17298 0
1 6.41779 3.13364 0
1 7.13222 4.35852 0
1 8.47672 4.43784 0
1 9.51148 5.43045 0
1 10.3704 6.54472 0
1 11.7961 6.46603 0
1 12.4901 7.65081 0
1 13.9005 7.68362 0
1 14.6638 8.94131 0
1 16.1107 8.90877 0
1 16.8188 10.0805 0
1 18.2305 10.1267 0
1 18.9584 11.3682 0
1 20.3697 11.3109 0
1 20.4756 2.46719 0
1 0.542111 2.34258 0
1 1.38607 3.55869 0
1 2.73828 3.47005 0
1 3.62766 4.89456 0
1 4.99918 4.73146 0
1 6.08132 6.17601 0
1 7.60558 6.40061 0
1 8.34647 7.66584 0
1 9.72799 7.71043 0
1 10.4166 8.95498 0
1 11.8139 8.91877 0
1 12.5658 10.1441 0
1 13.9899 10.1475 0
1 14.7373 11.3964 0
1 16.1417 11.3239 0
1 16.8812 12.6173 0
1 18.3118 12.6393 0
1 19.0645 13.8444 0
1 20.5045 13.8349 0
1 20.7777 5.02257 0
1 0.836982 4.8956 0
1 1.69001 6.23122 0
1 3.07684 6.14019 0
1 3.96087 7.49342 0
1 5.42731 7.4845 0
1 6.23042 8.79257 0
1 7.66302 8.86816 0
1 8.31463 10.1227 0
1 9.68606 10.173 0
1 10.4009 11.4226 0
1 11.885 11.389 0
1 12.6813 12.6434 0
1 14.076 12.6751 0
1 14.7776 13.9154 0
1 16.187 13.883 0
1 16.9463 15.0678 0
1 18.3499 15.0508 0
1 19.0514 16.357 0
1 20.4828 16.312 0
1 20.9411 7.59563 0
1 1.0693 7.5224 0
1 1.91041 8.79834 0
1 3.34662 8.78117 0
1 4.10711 10.0205 0
1 5.51859 10.0304 0
1 6.2628 11.3588 0
1 7.62998 11.354 0
1 8.33648 12.6313 0
1 9.75449 12.6728 0
1 10.5094 13.8505 0
1 11.9375 13.8223 0
1 12.6717 15.0941 0
1 14.0741 15.1183 0
1 14.8065 16.3705 0
1 16.2726 16.3452 0
1 16.9598 17.5771 0
1 18.3504 17.5897 0
1 19.0916 18.777 0
1 20.5213 18.7369 0
1 21.0518 10.0984 0
1 1.2576 10.0755 0
1 2.03188 11.2874 0
1 3.43306 11.2912 0
1 4.15706 12.5967 0
1 5.56745 12.5889 0
1 6.2989 13.8037 0
1 7.65142 13.7967 0
1 8.41863 15.0807 0
1 9.85312 15.0832 0
1 10.5742 16.2889 0
1 11.9481 16.3039 0
1 12.5969 17.5261 0
1 14.0899 17.602 0
1 14.8083 18.853 0
1 16.207 18.8474 0
1 16.975 20.0684 0
1 18.3986 20.0195 0
1 19.099 21.3463 0
1 20.5581 21.3209 0
1 21.1805 12.6004 0
1 1.33356 12.5771 0
1 2.03677 13.8564 0
1 3.42409 13.8645 0
1 4.12996 15.0311 0
1 5.6348 15.0269 0
1 6.3208 16.3637 0
1 7.68183 16.343 0
1 8.34287 17.5113 0
1 9.85302 17.526 0
1 10.5786 18.7559 0
1 11.9212 18.7213 0
1 12.6634 19.981 0
1 14.1012 20.0528 0
1 14.8232 21.3143 0
1 16.2972 21.3134 0
1 16.9716 22.5402 0
1 18.3678 22.5887 0
1 19.1115 23.8312 0
1 20.5295 23.8052 0
1 21.1959 15.0735 0
1 1.32311 15.1192 0
1 2.04843 16.3829 0
1 3.45656 16.3204 0
1 4.21329 17.5169 0
1 5.61498 17.5496 0
1 6.29735 18.7948 0
1 7.64539 18.7665 0
1 8.40591 19.9721 0
1 9.89752 19.9666 0
1 10.5838 21.2411 0
1 11.9726 21.2295 0
1 12.694 22.4605 0
1 14.1117 22.5182 0
1 14.8697 23.786 0
1 16.2949 23.7561 0
1 17.0474 24.9777 0
1 18.4223 25.0039 0
1 19.0934 26.2396 0
1 20.5835 26.2795 0
1 21.2074 17.5321 0
1 1.32968 17.5925 0
1 2.03939 18.803 0
1 3.47043 18.747 0
1 4.11821 19.9855 0
1 5.57441 20.0162 0
1 6.29113 21.2102 0
1 7.72312 21.1869 0
1 8.44466 22.428 0
1 9.84788 22.4768 0
1 10.5971 23.7574 0
1 12.0226 23.6933 0
1 12.7495 24.9753 0
1 14.1929 25.0759 0
1 14.9242 26.2986 0
1 16.3577 26.2517 0
1 17.1025 27.4873 0
1 18.4479 27.4581 0
1 19.3173 28.8397 0
1 20.7298 28.806 0
1 21.2463 20.0277 0
1 1.36049 20.0482 0
1 2.08093 21.2561 0
1 3.41025 21.2256 0
1 4.16261 22.5219 0
1 5.61494 22.4813 0
1 6.37626 23.7309 0
1 7.75339 23.6958 0
1 8.4834 24.929 0
1 9.91599 24.964 0
1 10.6364 26.1933 0
1 12.0562 26.2073 0
1 12.8625 27.4441 0
1 14.2655 27.4766 0
1 14.9655 28.714 0
1 16.3803 28.7227 0
1 17.1334 29.9988 0
1 18.6113 30.0692 0
1 19.3574 31.3715 0
1 20.8227 31.3756 0
1 21.2877 22.5129 0
1 1.39735 22.5124 0
1 2.06753 23.7832 0
1 3.49043 23.7762 0
1 4.23831 24.9486 0
1 5.68104 24.9426 0
1 6.33921 26.161 0
1 7.81796 26.1527 0
1 8.62023 27.4058 0
1 10.0181 27.3857 0
1 10.7595 28.5937 0
1 12.2014 28.6369 0
1 12.8712 29.9073 0
1 14.2959 29.9667 0
1 15.1383 31.143 0
1 16.5135 31.2262 0
1 17.2848 32.5131 0
1 18.6994 32.5903 0
1 19.716 34.0842 0
1 21.1284 34.0281 0
1 21.2464 25.0217 0
1 1.34933 24.9836 0
1 2.08404 26.1976 0
1 3.48615 26.2036 0
1 4.2115 27.4978 0
1 5.59309 27.4361 0
1 6.37574 28.6861 0
1 7.91762 28.6609 0
1 8.69329 29.9575 0
1 10.1215 29.8845 0
1 11.0553 30.9622 0
1 11.9395 32.1176 0
1 13.2897 32.1057 0
1 14.0069 33.2558 0
1 15.3346 33.2628 0
1 16.0918 34.5169 0
1 17.4501 34.6109 0
1 18.0982 35.7891 0
1 19.3995 35.6042 0
1 20.1986 36.8863 0
1 0.0754511 27.5332 0
1 1.44507 27.5112 0
1 2.19979 28.7994 0
1 3.58023 28.7643 0
1 4.32285 29.9756 0
1 5.73767 29.9547 0
1 6.56156 31.1577 0
1 7.96545 31.1488 0
1 8.57085 32.4165 0
1 9.8973 32.6466 0
1 11.242 33.4061 0
1 11.9844 34.5961 0
1 13.3834 34.5321 0
1 14.1399 35.8172 0
1 15.4504 35.8081 0
1 16.1888 0.161175 0
1 0.176518 30.0973 0
1 1.57494 30.102 0
1 2.36104 31.3137 0
1 3.71746 31.2474 0
1 4.52674 32.4256 0
1 5.9398 32.4194 0
1 6.67814 33.6958 0
1 7.98455 33.6245 0
1 9.11609 34.702 0
1 10.1267 35.8284 0
1 11.4145 35.7821 0
1 12.2399 0.138004 0
1 0.389893 32.6019 0
1 1.77067 32.5037 0
1 2.57782 33.7941 0
1 3.95645 33.696 0
1 4.75583 34.9625 0
1 6.09833 34.9534 0
1 6.84316 36.2868 0
1 8.16138 36.7155 0
1 0.672674 35.3493 0
1 2.01806 35.1823 0
1 2.85228 36.3877 0
1 4.18059 36.2969 0
