296
Atoms. Timestep: 600
1 17.5243 0.122559 0
1 18.3401 1.3545 0
1 19.6717 1.26674 0
1 13.5324 0.139167 0
1 14.3319 1.46685 0
1 15.6669 1.40792 0
1 16.4801 2.72086 0
1 17.7828 2.66618 0
1 18.5917 3.87385 0
1 19.9383 3.79232 0
1 9.60543 0.152645 0
1 10.3562 1.34053 0
1 11.695 1.38121 0
1 12.3916 2.66486 0
1 13.6912 2.68259 0
1 14.4004 3.89717 0
1 15.8303 3.92497 0
1 16.5916 5.15933 0
1 18.0038 5.12656 0
1 18.7691 6.3653 0
1 20.1616 6.36213 0
1 4.95103 0.674047 0
1 6.21243 0.627664 0
1 6.96342 1.87806 0
1 8.34547 1.93338 0
1 9.08183 3.14027 0
1 10.3664 3.45376 0
1 11.7214 3.90036 0
1 12.4635 5.23347 0
1 13.8341 5.17712 0
1 14.5619 6.40191 0
1 15.9382 6.37743 0
1 16.7399 7.68098 0
1 18.1114 7.59504 0
1 18.9111 8.89197 0
1 20.3143 8.88078 0
1 0.191032 36.7059 0
1 1.05115 1.01668 0
1 2.3366 0.885165 0
1 3.16571 2.0817 0
1 4.44556 1.92001 0
1 5.14706 3.17782 0
1 6.42993 3.12384 0
1 7.14159 4.34352 0
1 8.46913 4.43099 0
1 9.50975 5.42052 0
1 10.366 6.54825 0
1 11.7808 6.47452 0
1 12.5084 7.64702 0
1 13.8998 7.70473 0
1 14.6697 8.93758 0
1 16.1069 8.9147 0
1 16.8175 10.0924 0
1 18.2427 10.1327 0
1 18.967 11.3717 0
1 20.3814 11.3095 0
1 20.4729 2.46603 0
1 0.535939 2.34854 0
1 1.38128 3.57426 0
1 2.73143 3.47404 0
1 3.63176 4.88797 0
1 5.02102 4.72918 0
1 6.09264 6.17385 0
1 7.60999 6.39933 0
1 8.34506 7.66541 0
1 9.72762 7.71824 0
1 10.4368 8.96062 0
1 11.8178 8.93468 0
1 12.584 10.1518 0
1 13.9908 10.1528 0
1 14.7407 11.4032 0
1 16.1463 11.3403 0
1 16.8831 12.6183 0
1 18.311 12.6412 0
1 19.0586 13.8502 0
1 20.4978 13.8334 0
1 20.7799 5.02376 0
1 0.83533 4.90707 0
1 1.69707 6.23971 0
1 3.0962 6.12878 0
1 3.95656 7.48905 0
1 5.42675 7.48426 0
1 6.22122 8.79742 0
1 7.65273 8.87654 0
1 8.32448 10.1276 0
1 9.70277 10.1769 0
1 10.4285 11.4119 0
1 11.8811 11.4032 0
1 12.6917 12.6438 0
1 14.057 12.6716 0
1 14.7846 13.9036 0
1 16.1861 13.8841 0
1 16.9408 15.0751 0
1 18.3424 15.0547 0
1 19.0567 16.3644 0
1 20.4846 16.3086 0
1 20.9541 7.58104 0
1 1.07081 7.52211 0
1 1.90812 8.79078 0
1 3.34623 8.77971 0
1 4.09387 10.0277 0
1 5.50826 10.0371 0
1 6.2648 11.3657 0
1 7.63336 11.3528 0
1 8.35359 12.6345 0
1 9.77118 12.6696 0
1 10.5202 13.8611 0
1 11.9245 13.8277 0
1 12.6783 15.1028 0
1 14.0691 15.1104 0
1 14.8007 16.3616 0
1 16.2595 16.347 0
1 16.9583 17.5721 0
1 18.342 17.5835 0
1 19.0892 18.7921 0
1 20.5201 18.7467 0
1 21.0641 10.0968 0
1 1.24713 10.0785 0
1 2.01825 11.2867 0
1 3.42045 11.3021 0
1 4.15254 12.5943 0
1 5.55749 12.5789 0
1 6.28479 13.8208 0
1 7.65251 13.8055 0
1 8.42788 15.0829 0
1 9.83768 15.0977 0
1 10.573 16.2973 0
1 11.9531 16.3232 0
1 12.6077 17.5375 0
1 14.0999 17.5975 0
1 14.8097 18.8414 0
1 16.2054 18.8338 0
1 16.9609 20.0685 0
1 18.3891 20.0124 0
1 19.0861 21.3302 0
1 20.5476 21.3145 0
1 21.1708 12.606 0
1 1.32016 12.5784 0
1 2.02745 13.8408 0
1 3.4213 13.8653 0
1 4.13317 15.033 0
1 5.63722 15.0342 0
1 6.30146 16.3705 0
1 7.6914 16.3369 0
1 8.35402 17.5196 0
1 9.85771 17.5424 0
1 10.5694 18.78 0
1 11.9407 18.7405 0
1 12.6666 19.9991 0
1 14.1064 20.0488 0
1 14.8157 21.3086 0
1 16.2983 21.2964 0
1 16.95 22.5314 0
1 18.3743 22.5668 0
1 19.113 23.8213 0
1 20.5279 23.7845 0
1 21.1891 15.0734 0
1 1.32084 15.1089 0
1 2.04945 16.3645 0
1 3.44664 16.3213 0
1 4.20801 17.5259 0
1 5.61119 17.5459 0
1 6.30535 18.7968 0
1 7.66566 18.7761 0
1 8.40754 19.9962 0
1 9.8972 19.9775 0
1 10.574 21.2556 0
1 11.9775 21.2389 0
1 12.6964 22.4723 0
1 14.114 22.5159 0
1 14.861 23.7654 0
1 16.2941 23.7596 0
1 17.0388 24.9852 0
1 18.4258 24.995 0
1 19.1033 26.2475 0
1 20.5883 26.2713 0
1 21.2012 17.542 0
1 1.3275 17.5824 0
1 2.04244 18.8053 0
1 3.47004 18.7526 0
1 4.1299 19.9982 0
1 5.58733 20.0235 0
1 6.29374 21.2193 0
1 7.72732 21.2093 0
1 8.44957 22.4409 0
1 9.84835 22.4822 0
1 10.5998 23.7626 0
1 12.0183 23.6923 0
1 12.7457 24.9636 0
1 14.1851 25.0593 0
1 14.9084 26.2799 0
1 16.3411 26.2467 0
1 17.1118 27.5008 0
1 18.4529 27.4588 0
1 19.3036 28.8322 0
1 20.7092 28.7865 0
1 21.2317 20.0265 0
1 1.3488 20.0497 0
1 2.08864 21.2554 0
1 3.42185 21.2333 0
1 4.17568 22.5212 0
1 5.62074 22.4815 0
1 6.35957 23.736 0
1 7.75074 23.7046 0
1 8.47839 24.9357 0
1 9.90865 24.9558 0
1 10.6304 26.1784 0
1 12.0472 26.2155 0
1 12.8434 27.4326 0
1 14.2556 27.4717 0
1 14.9684 28.7225 0
1 16.3785 28.721 0
1 17.1441 30.0042 0
1 18.6091 30.0542 0
1 19.3624 31.3659 0
1 20.8181 31.3658 0
1 21.2778 22.5057 0
1 1.38184 22.5107 0
1 2.07423 23.7766 0
1 3.48813 23.7693 0
1 4.24075 24.9464 0
1 5.68224 24.9519 0
1 6.34344 26.1665 0
1 7.80897 26.1621 0
1 8.60087 27.3992 0
1 9.99468 27.3978 0
1 10.7346 28.5811 0
1 12.1748 28.6427 0
1 12.8727 29.9069 0
1 14.2977 29.9706 0
1 15.159 31.1665 0
1 16.5199 31.2348 0
1 17.2951 32.499 0
1 18.7092 32.5963 0
1 19.7223 34.0972 0
1 21.1161 34.0192 0
1 21.2513 25.0193 0
1 1.36225 24.9776 0
1 2.0951 26.2027 0
1 3.50225 26.2066 0
1 4.23439 27.4911 0
1 5.62366 27.4318 0
1 6.38889 28.6831 0
1 7.89994 28.6546 0
1 8.66974 29.9398 0
1 10.0939 29.8701 0
1 11.0357 30.9501 0
1 11.9313 32.0993 0
1 13.2791 32.1059 0
1 14.0026 33.2681 0
1 15.3371 33.2627 0
1 16.1029 34.5209 0
1 17.4547 34.6211 0
1 18.1101 35.7797 0
1 19.4061 35.5963 0
1 20.2083 36.8663 0
1 0.0691863 27.5199 0
1 1.45003 27.5066 0
1 2.19706 28.7764 0
1 3.59856 28.7486 0
1 4.3355 29.9569 0
1 5.74944 29.9524 0
1 6.55215 31.1509 0
1 7.95647 31.1389 0
1 8.5729 32.4085 0
1 9.89752 32.6509 0
1 11.2532 33.3843 0
1 11.9846 34.5982 0
1 13.4003 34.5269 0
1 14.1491 35.8192 0
1 15.46 35.8001 0
1 16.2066 0.15971 0
1 0.164435 30.0752 0
1 1.565 30.0809 0
1 2.35932 31.3005 0
1 3.71765 31.2488 0
1 4.52069 32.4348 0
1 5.93853 32.4236 0
1 6.67327 33.6925 0
1 7.99873 33.6124 0
1 9.07668 34.7204 0
1 10.1188 35.828 0
1 11.423 35.7787 0
1 12.2485 0.147165 0
1 0.377034 32.6089 0
1 1.75717 32.5124 0
1 2.57376 33.8094 0
1 3.94867 33.7133 0
1 4.75373 34.973 0
1 6.09723 34.9529 0
1 6.85614 36.268 0
1 8.17525 36.7248 0
1 0.678063 35.3264 0
1 2.00947 35.1785 0
1 2.85829 36.389 0
1 4.16964 36.3102 0
