296
Atoms. Timestep: 250
1 17.5595 0.124352 0
1 18.3531 1.33937 0
1 19.6763 1.24826 0
1 13.5532 0.148537 0
1 14.3341 1.43402 0
1 15.6609 1.40189 0
1 16.4467 2.67531 0
1 17.771 2.62846 0
1 18.5788 3.8568 0
1 19.9325 3.78558 0
1 9.59178 0.159633 0
1 10.3487 1.36165 0
1 11.6731 1.40543 0
1 12.3984 2.67381 0
1 13.7166 2.67482 0
1 14.4415 3.93044 0
1 15.8258 3.92348 0
1 16.5964 5.16728 0
1 17.9823 5.12766 0
1 18.7729 6.3705 0
1 20.163 6.33287 0
1 4.95232 0.674418 0
1 6.24018 0.620316 0
1 6.99775 1.86504 0
1 8.33231 1.93084 0
1 9.07062 3.1541 0
1 10.4038 3.45408 0
1 11.7463 3.90741 0
1 12.4366 5.22149 0
1 13.827 5.1966 0
1 14.5677 6.43688 0
1 15.9584 6.4092 0
1 16.737 7.67465 0
1 18.1292 7.62118 0
1 18.9116 8.87984 0
1 20.3257 8.85422 0
1 0.201064 36.6717 0
1 1.03509 1.00574 0
1 2.32434 0.880269 0
1 3.13949 2.09943 0
1 4.42313 1.95938 0
1 5.16724 3.19898 0
1 6.44827 3.10546 0
1 7.13683 4.33317 0
1 8.47473 4.39292 0
1 9.50935 5.40659 0
1 10.3646 6.54767 0
1 11.7616 6.47516 0
1 12.5237 7.68459 0
1 13.9123 7.70249 0
1 14.6731 8.93013 0
1 16.0861 8.91461 0
1 16.825 10.1339 0
1 18.2488 10.1328 0
1 18.9875 11.3706 0
1 20.4092 11.3347 0
1 20.481 2.46905 0
1 0.522169 2.3577 0
1 1.3713 3.60518 0
1 2.7152 3.48438 0
1 3.64784 4.85111 0
1 5.04981 4.72568 0
1 6.11156 6.17905 0
1 7.62058 6.37287 0
1 8.33154 7.67534 0
1 9.72764 7.73978 0
1 10.4511 8.96338 0
1 11.8418 8.95059 0
1 12.5953 10.1722 0
1 13.996 10.1657 0
1 14.7405 11.406 0
1 16.1518 11.38 0
1 16.8869 12.625 0
1 18.3088 12.625 0
1 19.0445 13.8536 0
1 20.4729 13.8376 0
1 20.7684 5.02726 0
1 0.837276 4.9347 0
1 1.70249 6.23212 0
1 3.11286 6.14446 0
1 3.96697 7.4761 0
1 5.42357 7.47578 0
1 6.19807 8.80959 0
1 7.62279 8.87661 0
1 8.3394 10.1428 0
1 9.74647 10.1763 0
1 10.478 11.4073 0
1 11.8949 11.4138 0
1 12.6598 12.6449 0
1 14.0461 12.6507 0
1 14.7838 13.8807 0
1 16.1922 13.8743 0
1 16.9258 15.0956 0
1 18.3387 15.0823 0
1 19.0618 16.3452 0
1 20.4856 16.3169 0
1 20.9723 7.56947 0
1 1.08399 7.52219 0
1 1.89558 8.78608 0
1 3.32663 8.7676 0
1 4.08119 10.0436 0
1 5.49797 10.0535 0
1 6.2472 11.353 0
1 7.64584 11.3611 0
1 8.3775 12.6277 0
1 9.79426 12.645 0
1 10.5272 13.8734 0
1 11.9312 13.8608 0
1 12.6717 15.1107 0
1 14.0755 15.1072 0
1 14.7983 16.3462 0
1 16.2279 16.3432 0
1 16.943 17.5724 0
1 18.348 17.5725 0
1 19.0785 18.8064 0
1 20.5051 18.785 0
1 21.0895 10.0909 0
1 1.22689 10.0695 0
1 1.98492 11.3081 0
1 3.39893 11.3114 0
1 4.13634 12.5814 0
1 5.54584 12.5775 0
1 6.27116 13.839 0
1 7.67537 13.838 0
1 8.41925 15.0918 0
1 9.8251 15.1051 0
1 10.5545 16.3258 0
1 11.961 16.3406 0
1 12.6571 17.5644 0
1 14.1009 17.5818 0
1 14.8098 18.8172 0
1 16.2206 18.8135 0
1 16.9459 20.0546 0
1 18.372 20.0304 0
1 19.0828 21.2935 0
1 20.5211 21.288 0
1 21.1597 12.598 0
1 1.29096 12.5785 0
1 2.0151 13.8261 0
1 3.4272 13.8376 0
1 4.14926 15.0596 0
1 5.5966 15.0632 0
1 6.28786 16.34 0
1 7.70556 16.3264 0
1 8.40256 17.5507 0
1 9.84893 17.5629 0
1 10.5559 18.8003 0
1 11.9688 18.787 0
1 12.6802 20.03 0
1 14.1077 20.0417 0
1 14.8172 21.2872 0
1 16.2627 21.2799 0
1 16.952 22.5222 0
1 18.3853 22.5291 0
1 19.1147 23.7802 0
1 20.5336 23.7601 0
1 21.1866 15.078 0
1 1.31403 15.0825 0
1 2.03904 16.3253 0
1 3.44737 16.3155 0
1 4.18199 17.5461 0
1 5.59481 17.5492 0
1 6.3047 18.793 0
1 7.70772 18.7893 0
1 8.42374 20.0231 0
1 9.86692 20.0129 0
1 10.5651 21.264 0
1 11.984 21.2582 0
1 12.7028 22.4957 0
1 14.1214 22.5096 0
1 14.8514 23.7492 0
1 16.2787 23.7585 0
1 17.0135 25.0008 0
1 18.426 24.9981 0
1 19.149 26.2573 0
1 20.5884 26.255 0
1 21.2009 17.5576 0
1 1.32679 17.561 0
1 2.04564 18.7975 0
1 3.46632 18.7777 0
1 4.16726 20.02 0
1 5.59825 20.0255 0
1 6.30719 21.2472 0
1 7.73044 21.2467 0
1 8.45052 22.476 0
1 9.86096 22.4872 0
1 10.5948 23.7381 0
1 12.012 23.7144 0
1 12.7422 24.9631 0
1 14.1678 25.0026 0
1 14.8991 26.2438 0
1 16.3228 26.2421 0
1 17.0898 27.5062 0
1 18.4806 27.4896 0
1 19.2697 28.7954 0
1 20.6768 28.7699 0
1 21.2171 20.0327 0
1 1.33874 20.0383 0
1 2.07193 21.263 0
1 3.46236 21.255 0
1 4.19476 22.5059 0
1 5.61882 22.4883 0
1 6.33863 23.7302 0
1 7.75179 23.7165 0
1 8.47815 24.9469 0
1 9.90002 24.9462 0
1 10.6296 26.171 0
1 12.0495 26.2007 0
1 12.8057 27.432 0
1 14.2291 27.4643 0
1 14.9774 28.7304 0
1 16.3971 28.732 0
1 17.177 30.013 0
1 18.6032 30.0355 0
1 19.3836 31.3541 0
1 20.8078 31.3437 0
1 21.2473 22.5099 0
1 1.36032 22.5086 0
1 2.08298 23.7543 0
1 3.49555 23.7459 0
1 4.23462 24.9629 0
1 5.65866 24.9615 0
1 6.36689 26.1865 0
1 7.79528 26.1783 0
1 8.54984 27.4027 0
1 9.9564 27.3988 0
1 10.6942 28.5907 0
1 12.1198 28.6468 0
1 12.874 29.9112 0
1 14.3136 29.9687 0
1 15.1535 31.202 0
1 16.5379 31.2394 0
1 17.2994 32.4939 0
1 18.7326 32.6204 0
1 19.7263 34.1199 0
1 21.0976 33.9939 0
1 21.266 25.0071 0
1 1.38489 24.9842 0
1 2.12034 26.2242 0
1 3.53439 26.2146 0
1 4.2743 27.4659 0
1 5.6824 27.4338 0
1 6.42857 28.675 0
1 7.86798 28.6512 0
1 8.62951 29.9014 0
1 10.0575 29.8291 0
1 11.0208 30.9185 0
1 11.9192 32.0821 0
1 13.2641 32.0938 0
1 14.0077 33.2889 0
1 15.3671 33.2948 0
1 16.1123 34.5325 0
1 17.4504 34.6069 0
1 18.1337 35.7662 0
1 19.4135 35.5965 0
1 20.2148 36.8201 0
1 0.0461965 27.5072 0
1 1.45222 27.4932 0
1 2.20258 28.7446 0
1 3.61499 28.7192 0
1 4.36643 29.9482 0
1 5.77275 29.9308 0
1 6.5379 31.1487 0
1 7.93633 31.1299 0
1 8.58286 32.3895 0
1 9.90742 32.6669 0
1 11.2581 33.3427 0
1 12.0166 34.5822 0
1 13.4018 34.5358 0
1 14.1581 35.8053 0
1 15.4852 35.787 0
1 16.2406 0.155331 0
1 0.148183 30.0492 0
1 1.55344 30.0296 0
1 2.34616 31.2767 0
1 3.72908 31.2334 0
1 4.51991 32.4632 0
1 5.91304 32.4278 0
1 6.67859 33.6885 0
1 8.0309 33.5996 0
1 9.01567 34.7473 0
1 10.0927 35.8286 0
1 11.4457 35.7831 0
1 12.2452 0.160952 0
1 0.348918 32.6321 0
1 1.73482 32.553 0
1 2.56553 33.8319 0
1 3.93289 33.7495 0
1 4.74394 35.0007 0
1 6.09955 34.9491 0
1 6.86442 36.2367 0
1 8.20961 36.7385 0
1 0.681076 35.2871 0
1 2.01027 35.1664 0
1 2.85035 36.4065 0
1 4.16424 36.321 0
