296
Atoms. Timestep: 850
1 17.5098 0.124223 0
1 18.3108 1.38139 0
1 19.6625 1.28524 0
1 13.5464 0.135492 0
1 14.3078 1.47939 0
1 15.6674 1.44058 0
1 16.4778 2.74419 0
1 17.8223 2.69866 0
1 18.6002 3.89396 0
1 19.9497 3.79285 0
1 9.59021 0.151991 0
1 10.3599 1.32623 0
1 11.6883 1.37528 0
1 12.3797 2.64828 0
1 13.6815 2.69107 0
1 14.4025 3.88177 0
1 15.8323 3.92313 0
1 16.5829 5.14636 0
1 18.0141 5.13029 0
1 18.7558 6.3615 0
1 20.171 6.36829 0
1 4.93536 0.652599 0
1 6.21985 0.637664 0
1 6.96926 1.87958 0
1 8.35285 1.93605 0
1 9.04305 3.14527 0
1 10.3666 3.45136 0
1 11.6954 3.89084 0
1 12.461 5.22657 0
1 13.807 5.16143 0
1 14.5663 6.37257 0
1 15.9284 6.36584 0
1 16.7301 7.65164 0
1 18.1126 7.599 0
1 18.9054 8.89911 0
1 20.3026 8.88856 0
1 0.202879 36.7449 0
1 1.04609 1.03144 0
1 2.36493 0.875375 0
1 3.19005 2.05774 0
1 4.44723 1.8994 0
1 5.12851 3.17304 0
1 6.41023 3.13923 0
1 7.12097 4.36773 0
1 8.4841 4.43658 0
1 9.51319 5.43727 0
1 10.3755 6.54064 0
1 11.8047 6.45852 0
1 12.4785 7.66007 0
1 13.9021 7.66378 0
1 14.66 8.94114 0
1 16.1088 8.90207 0
1 16.8213 10.0776 0
1 18.2201 10.1203 0
1 18.9538 11.3648 0
1 20.3646 11.3176 0
1 20.4805 2.46933 0
1 0.545147 2.33872 0
1 1.38876 3.54966 0
1 2.74214 3.46737 0
1 3.62517 4.89335 0
1 4.98391 4.73375 0
1 6.0732 6.17882 0
1 7.60408 6.4006 0
1 8.34574 7.66754 0
1 9.72721 7.70804 0
1 10.4006 8.94868 0
1 11.8124 8.90735 0
1 12.5515 10.1396 0
1 13.9883 10.1455 0
1 14.7351 11.3899 0
1 16.1385 11.3163 0
1 16.88 12.6172 0
1 18.3119 12.6332 0
1 19.0677 13.8397 0
1 20.5065 13.8366 0
1 20.7742 5.02164 0
1 0.838903 4.89003 0
1 1.68364 6.22152 0
1 3.06237 6.15442 0
1 3.96622 7.49568 0
1 5.42727 7.48269 0
1 6.23508 8.7899 0
1 7.66508 8.86017 0
1 8.30921 10.1207 0
1 9.67723 10.1697 0
1 10.385 11.4304 0
1 11.8891 11.3785 0
1 12.6666 12.6419 0
1 14.0892 12.6744 0
1 14.773 13.9214 0
1 16.189 13.8802 0
1 16.9492 15.0653 0
1 18.3561 15.0523 0
1 19.0486 16.3462 0
1 20.4821 16.3158 0
1 20.9334 7.60717 0
1 1.06951 7.52356 0
1 1.91053 8.80451 0
1 3.3439 8.77985 0
1 4.11765 10.0168 0
1 5.52697 10.0271 0
1 6.25766 11.3496 0
1 7.62788 11.3561 0
1 8.32549 12.6267 0
1 9.74155 12.6697 0
1 10.5015 13.8432 0
1 11.9503 13.8232 0
1 12.6645 15.0872 0
1 14.0796 15.1254 0
1 14.8115 16.3757 0
1 16.278 16.3433 0
1 16.9592 17.5829 0
1 18.3592 17.5917 0
1 19.0927 18.7666 0
1 20.5201 18.735 0
1 21.0454 10.0985 0
1 1.26319 10.0711 0
1 2.03913 11.2921 0
1 3.44163 11.2827 0
1 4.15896 12.5966 0
1 5.57502 12.5965 0
1 6.3082 13.7917 0
1 7.65473 13.7949 0
1 8.40844 15.0795 0
1 9.86324 15.0709 0
1 10.5715 16.2841 0
1 11.9444 16.2887 0
1 12.5964 17.5195 0
1 14.0811 17.6031 0
1 14.806 18.8599 0
1 16.2126 18.8561 0
1 16.9848 20.0671 0
1 18.4047 20.0297 0
1 19.111 21.3547 0
1 20.5636 21.3223 0
1 21.1876 12.5936 0
1 1.34091 12.5761 0
1 2.04381 13.868 0
1 3.42803 13.8584 0
1 4.1314 15.035 0
1 5.62543 15.0254 0
1 6.33487 16.3506 0
1 7.67628 16.3451 0
1 8.34145 17.5099 0
1 9.84693 17.5131 0
1 10.5822 18.7357 0
1 11.91 18.7111 0
1 12.6615 19.9703 0
1 14.0974 20.0544 0
1 14.83 21.3164 0
1 16.2911 21.3261 0
1 16.9905 22.5482 0
1 18.3664 22.602 0
1 19.1099 23.8339 0
1 20.5323 23.82 0
1 21.2018 15.0753 0
1 1.32438 15.1244 0
1 2.04565 16.3923 0
1 3.46625 16.3185 0
1 4.21328 17.5129 0
1 5.61589 17.5528 0
1 6.28756 18.7915 0
1 7.63612 18.7589 0
1 8.40653 19.9539 0
1 9.89212 19.9611 0
1 10.5904 21.2283 0
1 11.97 21.2229 0
1 12.6932 22.4547 0
1 14.1117 22.5193 0
1 14.8758 23.8025 0
1 16.2946 23.7538 0
1 17.0498 24.9752 0
1 18.4192 25.0123 0
1 19.0939 26.2351 0
1 20.5785 26.284 0
1 21.2126 17.5269 0
1 1.3319 17.597 0
1 2.03794 18.7996 0
1 3.46926 18.746 0
1 4.11482 19.9778 0
1 5.56383 20.0086 0
1 6.29008 21.2063 0
1 7.71951 21.1725 0
1 8.4403 22.422 0
1 9.85051 22.4715 0
1 10.5943 23.7477 0
1 12.0249 23.6984 0
1 12.7533 24.9867 0
1 14.198 25.081 0
1 14.9381 26.3087 0
1 16.3696 26.2557 0
1 17.0896 27.4765 0
1 18.4487 27.4628 0
1 19.3238 28.8406 0
1 20.7432 28.8224 0
1 21.2575 20.03 0
1 1.36871 20.0445 0
1 2.07108 21.2578 0
1 3.40711 21.2229 0
1 4.15436 22.5194 0
1 5.60976 22.4817 0
1 6.38613 23.7239 0
1 7.75707 23.689 0
1 8.489 24.9248 0
1 9.92062 24.9695 0
1 10.6447 26.2043 0
1 12.066 26.1982 0
1 12.8749 27.4541 0
1 14.2704 27.4809 0
1 14.9651 28.7081 0
1 16.3852 28.7253 0
1 17.1308 29.9955 0
1 18.6125 30.0797 0
1 19.3569 31.3748 0
1 20.8255 31.3808 0
1 21.2917 22.5217 0
1 1.40624 22.514 0
1 2.0639 23.7848 0
1 3.49294 23.7779 0
1 4.23427 24.9538 0
1 5.67566 24.9361 0
1 6.33909 26.1596 0
1 7.8237 26.1476 0
1 8.62951 27.4117 0
1 10.0325 27.3775 0
1 10.7781 28.6064 0
1 12.215 28.6339 0
1 12.8715 29.908 0
1 14.2971 29.9608 0
1 15.1219 31.1292 0
1 16.5086 31.2189 0
1 17.2811 32.5209 0
1 18.6943 32.5908 0
1 19.7104 34.0763 0
1 21.1361 34.0318 0
1 21.2444 25.0228 0
1 1.34109 24.9908 0
1 2.07758 26.1978 0
1 3.47665 26.2028 0
1 4.19578 27.4993 0
1 5.57615 27.441 0
1 6.37013 28.6876 0
1 7.92917 28.667 0
1 8.70875 29.9669 0
1 10.1424 29.8907 0
1 11.0729 30.9688 0
1 11.9418 32.1343 0
1 13.292 32.105 0
1 14.0107 33.25 0
1 15.3326 33.2665 0
1 16.0827 34.5155 0
1 17.4435 34.6 0
1 18.092 35.7943 0
1 19.3942 35.6129 0
1 20.1913 36.8967 0
1 0.0765948 27.5447 0
1 1.44084 27.5136 0
1 2.20309 28.816 0
1 3.56496 28.7746 0
1 4.31685 29.992 0
1 5.7314 29.9529 0
1 6.56725 31.164 0
1 7.97083 31.1577 0
1 8.57065 32.4215 0
1 9.9025 32.6445 0
1 11.2318 33.4186 0
1 11.9894 34.5921 0
1 13.368 34.5381 0
1 14.1325 35.8126 0
1 15.4452 35.8123 0
1 16.1792 0.162037 0
1 0.185801 30.1143 0
1 1.58224 30.1131 0
1 2.36116 31.3202 0
1 3.7199 31.2436 0
1 4.53272 32.4225 0
1 5.93634 32.4161 0
1 6.68235 33.6988 0
1 7.97953 33.6336 0
1 9.14456 34.6882 0
1 10.1269 35.8299 0
1 11.4136 35.7855 0
1 12.231 0.131926 0
1 0.396967 32.6008 0
1 1.77888 32.5053 0
1 2.58091 33.7831 0
1 3.96064 33.6865 0
1 4.75643 34.9571 0
1 6.09988 34.9533 0
1 6.83146 36.2991 0
1 8.15612 36.7111 0
1 0.669412 35.3636 0
1 2.02527 35.1841 0
1 2.8474 36.389 0
1 4.18814 36.2857 0
