296
Atoms. Timestep: 150
1 17.5698 0.12409 0
1 18.3508 1.3385 0
1 19.6775 1.24485 0
1 13.5626 0.15063 0
1 14.3307 1.42629 0
1 15.6604 1.404 0
1 16.4355 2.6654 0
1 17.7751 2.62064 0
1 18.5744 3.85493 0
1 19.9328 3.78292 0
1 9.58557 0.163298 0
1 10.3463 1.3626 0
1 11.6657 1.41255 0
1 12.3997 2.67342 0
1 13.7225 2.67452 0
1 14.4548 3.93769 0
1 15.8247 3.9225 0
1 16.5963 5.16779 0
1 17.9782 5.12811 0
1 18.7713 6.37139 0
1 20.1657 6.32463 0
1 4.9493 0.672331 0
1 6.25114 0.619181 0
1 7.00872 1.861 0
1 8.3317 1.93621 0
1 9.06116 3.15852 0
1 10.4155 3.45686 0
1 11.7495 3.90832 0
1 12.4287 5.21726 0
1 13.82 5.20075 0
1 14.5708 6.44318 0
1 15.9626 6.4177 0
1 16.7349 7.6685 0
1 18.1348 7.6297 0
1 18.9113 8.87723 0
1 20.3279 8.84711 0
1 0.206416 36.6664 0
1 1.0284 1.00447 0
1 2.32545 0.877319 0
1 3.1351 2.10152 0
1 4.41695 1.96809 0
1 5.17108 3.20449 0
1 6.45045 3.10258 0
1 7.13196 4.33043 0
1 8.47931 4.38215 0
1 9.50939 5.40493 0
1 10.3647 6.54681 0
1 11.7605 6.47264 0
1 12.5221 7.69903 0
1 13.9172 7.69494 0
1 14.6718 8.92967 0
1 16.0808 8.91322 0
1 16.8279 10.144 0
1 18.2472 10.1311 0
1 18.9921 11.369 0
1 20.4147 11.3432 0
1 20.4842 2.47022 0
1 0.519434 2.35903 0
1 1.36936 3.61117 0
1 2.71142 3.48732 0
1 3.65243 4.84105 0
1 5.05268 4.72477 0
1 6.11473 6.18171 0
1 7.6237 6.36712 0
1 8.32677 7.67873 0
1 9.72818 7.74413 0
1 10.4496 8.96344 0
1 11.8497 8.95072 0
1 12.593 10.1773 0
1 13.9983 10.1682 0
1 14.7387 11.4052 0
1 16.1521 11.3883 0
1 16.8877 12.6271 0
1 18.3084 12.6193 0
1 19.0413 13.8529 0
1 20.4663 13.8397 0
1 20.7634 5.02832 0
1 0.838273 4.94061 0
1 1.70244 6.22716 0
1 3.11228 6.15258 0
1 3.9718 7.47274 0
1 5.42249 7.47303 0
1 6.19266 8.81229 0
1 7.61649 8.8739 0
1 8.34087 10.1465 0
1 9.75682 10.1746 0
1 10.4859 11.4098 0
1 11.902 11.4124 0
1 12.6449 12.6456 0
1 14.049 12.6445 0
1 14.7806 13.8769 0
1 16.1945 13.8705 0
1 16.922 15.1 0
1 18.3396 15.0905 0
1 19.0616 16.3363 0
1 20.4849 16.3212 0
1 20.9739 7.56983 0
1 1.08815 7.52174 0
1 1.89169 8.78669 0
1 3.31977 8.76396 0
1 4.08044 10.0467 0
1 5.49719 10.057 0
1 6.24067 11.3469 0
1 7.64934 11.3643 0
1 8.3801 12.6247 0
1 9.79769 12.6381 0
1 10.5257 13.8742 0
1 11.938 13.8704 0
1 12.6671 15.1108 0
1 14.0792 15.1082 0
1 14.7993 16.3438 0
1 16.2216 16.3411 0
1 16.9379 17.5735 0
1 18.3527 17.5713 0
1 19.0753 18.8062 0
1 20.5002 18.795 0
1 21.0941 10.0894 0
1 1.22321 10.0654 0
1 1.97732 11.3154 0
1 3.39493 11.3111 0
1 4.13182 12.5777 0
1 5.54444 12.5804 0
1 6.27126 13.84 0
1 7.68272 13.846 0
1 8.41326 15.0944 0
1 9.8262 15.1032 0
1 10.5487 16.3337 0
1 11.9624 16.3408 0
1 12.6704 17.5706 0
1 14.098 17.5776 0
1 14.8101 18.8123 0
1 16.2257 18.811 0
1 16.9454 20.049 0
1 18.3688 20.0388 0
1 19.0857 21.2857 0
1 20.515 21.281 0
1 21.1588 12.5935 0
1 1.28491 12.578 0
1 2.01338 13.8258 0
1 3.42987 13.8283 0
1 4.15324 15.0674 0
1 5.58142 15.0711 0
1 6.2898 16.3277 0
1 7.70721 16.3256 0
1 8.41577 17.5583 0
1 9.84434 17.5653 0
1 10.5552 18.8004 0
1 11.9717 18.7973 0
1 12.6845 20.0348 0
1 14.1062 20.0409 0
1 14.8206 21.2812 0
1 16.2497 21.2797 0
1 16.9599 22.5211 0
1 18.386 22.5231 0
1 19.1152 23.7691 0
1 20.536 23.7581 0
1 21.1877 15.0792 0
1 1.31218 15.0763 0
1 2.03512 16.3179 0
1 3.45041 16.3131 0
1 4.17466 17.5499 0
1 5.59012 17.5517 0
1 6.30318 18.7914 0
1 7.71485 18.7912 0
1 8.42933 20.0253 0
1 9.85659 20.0224 0
1 10.5656 21.2627 0
1 11.9844 21.2625 0
1 12.7044 22.4997 0
1 14.1229 22.5082 0
1 14.8512 23.75 0
1 16.2732 23.7566 0
1 17.008 25.0033 0
1 18.4251 25.002 0
1 19.1612 26.2578 0
1 20.5872 26.2522 0
1 21.2028 17.5593 0
1 1.32698 17.5571 0
1 2.04549 18.7941 0
1 3.46548 18.7848 0
1 4.17617 20.0235 0
1 5.59816 20.0244 0
1 6.31147 21.2539 0
1 7.73033 21.2529 0
1 8.44953 22.4841 0
1 9.86477 22.488 0
1 10.5923 23.7282 0
1 12.0114 23.7222 0
1 12.7421 24.9665 0
1 14.1639 24.9881 0
1 14.9003 26.2374 0
1 16.3218 26.2419 0
1 17.0801 27.5041 0
1 18.4882 27.4998 0
1 19.2626 28.7849 0
1 20.672 28.7696 0
1 21.2165 20.0351 0
1 1.33908 20.0341 0
1 2.06401 21.2658 0
1 3.47231 21.2599 0
1 4.1971 22.5009 0
1 5.61608 22.4908 0
1 6.33743 23.7272 0
1 7.75258 23.7182 0
1 8.47923 24.9487 0
1 9.89976 24.9455 0
1 10.6301 26.1739 0
1 12.0529 26.1925 0
1 12.798 27.4357 0
1 14.2232 27.4626 0
1 14.9795 28.7304 0
1 16.4042 28.7365 0
1 17.1846 30.0143 0
1 18.6019 30.0337 0
1 19.3894 31.3519 0
1 20.8057 31.3392 0
1 21.2398 22.5128 0
1 1.35836 22.5082 0
1 2.0835 23.749 0
1 3.49924 23.7404 0
1 4.232 24.9692 0
1 5.65039 24.9619 0
1 6.37385 26.1917 0
1 7.79355 26.1806 0
1 8.53816 27.4065 0
1 9.95079 27.3942 0
1 10.6868 28.5985 0
1 12.1099 28.6457 0
1 12.8727 29.9133 0
1 14.3184 29.9677 0
1 15.1506 31.2021 0
1 16.5423 31.2389 0
1 17.3023 32.4963 0
1 18.7371 32.6258 0
1 19.7265 34.1246 0
1 21.0952 33.988 0
1 21.2697 25.0034 0
1 1.38884 24.9881 0
1 2.12597 26.2297 0
1 3.54064 26.2163 0
1 4.28174 27.4596 0
1 5.69271 27.4357 0
1 6.43865 28.6732 0
1 7.86215 28.6516 0
1 8.62278 29.8939 0
1 10.0529 29.8194 0
1 11.0218 30.9105 0
1 11.9225 32.0798 0
1 13.2574 32.0922 0
1 14.0118 33.2915 0
1 15.3725 33.3097 0
1 16.1123 34.5352 0
1 17.4481 34.5976 0
1 18.1376 35.7649 0
1 19.4143 35.5985 0
1 20.2138 36.8103 0
1 0.0406394 27.5065 0
1 1.45148 27.4898 0
1 2.20543 28.7405 0
1 3.61572 28.7137 0
1 4.3732 29.9508 0
1 5.77686 29.9241 0
1 6.53637 31.15 0
1 7.93193 31.1294 0
1 8.58613 32.3848 0
1 9.90987 32.6711 0
1 11.2566 33.3353 0
1 12.0278 34.5755 0
1 13.3968 34.5409 0
1 14.1589 35.8 0
1 15.4912 35.7853 0
1 16.2461 0.154325 0
1 0.146049 30.0466 0
1 1.55245 30.0183 0
1 2.34206 31.2733 0
1 3.73267 31.2279 0
1 4.52154 32.47 0
1 5.90469 32.4282 0
1 6.683 33.6878 0
1 8.03271 33.601 0
1 9.00596 34.7513 0
1 10.0928 35.8256 0
1 11.4486 35.786 0
1 12.2419 0.162948 0
1 0.343231 32.6376 0
1 1.73151 32.5633 0
1 2.56367 33.8354 0
1 3.93002 33.7568 0
1 4.74109 35.0073 0
1 6.10064 34.9481 0
1 6.86456 36.2318 0
1 8.20974 36.7376 0
1 0.679938 35.2807 0
1 2.01361 35.1632 0
1 2.84488 36.4123 0
1 4.16667 36.3208 0
