296
Atoms. Timestep: 350
1 17.5488 0.124312 0
1 18.3536 1.34118 0
1 19.6751 1.25235 0
1 13.5441 0.146135 0
1 14.3367 1.44281 0
1 15.6619 1.40053 0
1 16.4582 2.68678 0
1 17.7687 2.63746 0
1 18.5831 3.8596 0
1 19.9328 3.78815 0
1 9.5978 0.156577 0
1 10.3516 1.35779 0
1 11.6807 1.3979 0
1 12.397 2.67335 0
1 13.7098 2.67571 0
1 14.4278 3.92206 0
1 15.827 3.92432 0
1 16.596 5.16627 0
1 17.9872 5.12713 0
1 18.7738 6.36936 0
1 20.1608 6.34165 0
1 4.95461 0.676198 0
1 6.22971 0.621635 0
1 6.98634 1.86919 0
1 8.33353 1.92807 0
1 9.07903 3.14943 0
1 10.3915 3.45315 0
1 11.7417 3.90612 0
1 12.4451 5.2258 0
1 13.8331 5.1918 0
1 14.5648 6.42915 0
1 15.9534 6.39999 0
1 16.7389 7.68008 0
1 18.1233 7.61227 0
1 18.9118 8.8828 0
1 20.3231 8.8619 0
1 0.196006 36.6786 0
1 1.04159 1.00753 0
1 2.32436 0.882986 0
1 3.14498 2.09642 0
1 4.42985 1.94935 0
1 5.16265 3.19296 0
1 6.44505 3.10931 0
1 7.14049 4.33357 0
1 8.47071 4.40439 0
1 9.50922 5.40904 0
1 10.3645 6.54845 0
1 11.7641 6.4771 0
1 12.5235 7.67024 0
1 13.9074 7.7086 0
1 14.6737 8.93115 0
1 16.0919 8.91577 0
1 16.8221 10.1226 0
1 18.2496 10.1341 0
1 18.9822 11.3718 0
1 20.4026 11.3258 0
1 20.4779 2.46785 0
1 0.525416 2.35594 0
1 1.37362 3.59809 0
1 2.71939 3.4814 0
1 3.64288 4.86208 0
1 5.0451 4.72655 0
1 6.10756 6.17659 0
1 7.61785 6.38189 0
1 8.33623 7.67173 0
1 9.72721 7.73455 0
1 10.4512 8.96323 0
1 11.8338 8.94917 0
1 12.5961 10.1665 0
1 13.9939 10.1627 0
1 14.7418 11.4065 0
1 16.151 11.3702 0
1 16.8859 12.6228 0
1 18.3093 12.6308 0
1 19.0481 13.8539 0
1 20.48 13.8357 0
1 20.7732 5.02616 0
1 0.836266 4.92786 0
1 1.70211 6.23667 0
1 3.11194 6.13662 0
1 3.96223 7.47972 0
1 5.4246 7.47859 0
1 6.20408 8.80644 0
1 7.63015 8.87867 0
1 8.33698 10.1387 0
1 9.73489 10.1777 0
1 10.4679 11.4058 0
1 11.8884 11.414 0
1 12.674 12.6442 0
1 14.0446 12.6572 0
1 14.7864 13.8855 0
1 16.1899 13.878 0
1 16.9298 15.0905 0
1 18.3382 15.0736 0
1 19.0616 16.3537 0
1 20.486 16.3129 0
1 20.9695 7.57 0
1 1.0796 7.52242 0
1 1.89955 8.78591 0
1 3.33352 8.7714 0
1 4.08263 10.0398 0
1 5.49928 10.0494 0
1 6.25375 11.359 0
1 7.64206 11.3578 0
1 8.3735 12.6307 0
1 9.7898 12.6524 0
1 10.5277 13.8718 0
1 11.9253 13.8505 0
1 12.6758 15.1099 0
1 14.072 15.1066 0
1 14.7977 16.3493 0
1 16.2354 16.3451 0
1 16.9482 17.5714 0
1 18.3439 17.5743 0
1 19.0818 18.8055 0
1 20.5102 18.774 0
1 21.0837 10.0925 0
1 1.23133 10.0735 0
1 1.99345 11.3006 0
1 3.40365 11.3109 0
1 4.1411 12.5853 0
1 5.54772 12.5753 0
1 6.27212 13.8369 0
1 7.66772 13.829 0
1 8.42461 15.0891 0
1 9.82523 15.106 0
1 10.5606 16.3174 0
1 11.9592 16.3391 0
1 12.6427 17.5575 0
1 14.1031 17.5863 0
1 14.8098 18.823 0
1 16.2152 18.8172 0
1 16.9474 20.0599 0
1 18.3758 20.0223 0
1 19.0809 21.3025 0
1 20.5279 21.2957 0
1 21.1612 12.6021 0
1 1.29797 12.5789 0
1 2.01735 13.8275 0
1 3.42455 13.8473 0
1 4.14479 15.0512 0
1 5.61167 15.0547 0
1 6.28744 16.3521 0
1 7.70312 16.3281 0
1 8.38831 17.5421 0
1 9.85322 17.5594 0
1 10.5576 18.7986 0
1 11.9642 18.7753 0
1 12.6758 20.0238 0
1 14.1087 20.0429 0
1 14.8145 21.2935 0
1 16.2758 21.2814 0
1 16.9456 22.5237 0
1 18.3838 22.5369 0
1 19.1142 23.7923 0
1 20.5313 23.7636 0
1 21.1858 15.0766 0
1 1.31597 15.0894 0
1 2.04294 16.3343 0
1 3.44483 16.3179 0
1 4.1898 17.5414 0
1 5.59978 17.547 0
1 6.30611 18.7946 0
1 7.69866 18.7868 0
1 8.41814 20.0194 0
1 9.87747 20.0027 0
1 10.5655 21.2645 0
1 11.9831 21.2533 0
1 12.7011 22.4907 0
1 14.1196 22.5113 0
1 14.8525 23.7498 0
1 16.2844 23.76 0
1 17.0199 24.9976 0
1 18.4267 24.9948 0
1 19.1357 26.2561 0
1 20.5894 26.2585 0
1 21.1994 17.5549 0
1 1.32664 17.5658 0
1 2.04547 18.8008 0
1 3.46729 18.7701 0
1 4.15725 20.0155 0
1 5.59748 20.0262 0
1 6.3028 21.2396 0
1 7.73031 21.2389 0
1 8.4513 22.4668 0
1 9.85692 22.4863 0
1 10.5973 23.7478 0
1 12.013 23.7064 0
1 12.7426 24.9605 0
1 14.1723 25.0184 0
1 14.8988 26.2517 0
1 16.3251 26.2426 0
1 17.0995 27.5076 0
1 18.4724 27.4791 0
1 19.2781 28.8066 0
1 20.6832 28.7713 0
1 21.2187 20.0303 0
1 1.33925 20.0425 0
1 2.07958 21.2601 0
1 3.45123 21.2494 0
1 4.1914 22.511 0
1 5.62111 22.4858 0
1 6.34131 23.7331 0
1 7.75106 23.7142 0
1 8.47728 24.9447 0
1 9.90097 24.9475 0
1 10.6293 26.1694 0
1 12.0467 26.2083 0
1 12.8147 27.4292 0
1 14.236 27.4661 0
1 14.9751 28.7298 0
1 16.39 28.7276 0
1 17.1685 30.0113 0
1 18.6047 30.0384 0
1 19.3775 31.3569 0
1 20.8104 31.349 0
1 21.2557 22.5071 0
1 1.36361 22.509 0
1 2.08186 23.7603 0
1 3.4921 23.7522 0
1 4.23721 24.9567 0
1 5.66714 24.9605 0
1 6.35957 26.1809 0
1 7.79776 26.1752 0
1 8.5631 27.3995 0
1 9.96387 27.4023 0
1 10.7031 28.5839 0
1 12.132 28.6474 0
1 12.8746 29.9093 0
1 14.3086 29.9697 0
1 15.1584 31.2002 0
1 16.5329 31.2395 0
1 17.2986 32.4923 0
1 18.727 32.6141 0
1 19.726 34.1148 0
1 21.1009 34.0005 0
1 21.262 25.0111 0
1 1.38003 24.9806 0
1 2.11398 26.2181 0
1 3.52697 26.2126 0
1 4.26542 27.4729 0
1 5.66963 27.4322 0
1 6.4176 28.6771 0
1 7.87508 28.651 0
1 8.638 29.9104 0
1 10.0639 29.84 0
1 11.0214 30.9272 0
1 11.9166 32.0855 0
1 13.2688 32.0969 0
1 14.0043 33.2851 0
1 15.3586 33.2792 0
1 16.1116 34.5294 0
1 17.4526 34.6148 0
1 18.1287 35.7683 0
1 19.4123 35.5948 0
1 20.2151 36.8314 0
1 0.0524876 27.5088 0
1 1.45267 27.4969 0
1 2.19992 28.7503 0
1 3.61328 28.7259 0
1 4.3587 29.9469 0
1 5.76766 29.9377 0
1 6.54033 31.1479 0
1 7.94139 31.131 0
1 8.57956 32.3946 0
1 9.9085 32.6609 0
1 11.259 33.3517 0
1 12.0053 34.5886 0
1 13.4055 34.5312 0
1 14.157 35.8106 0
1 15.4786 35.7894 0
1 16.2335 0.156489 0
1 0.151147 30.0532 0
1 1.55511 30.0425 0
1 2.3505 31.2814 0
1 3.72531 31.239 0
1 4.51875 32.4556 0
1 5.92168 32.4272 0
1 6.67494 33.6892 0
1 8.02409 33.6009 0
1 9.02808 34.742 0
1 10.0985 35.829 0
1 11.4412 35.7805 0
1 12.2482 0.158336 0
1 0.355649 32.6259 0
1 1.73924 32.5416 0
1 2.56764 33.8275 0
1 3.93643 33.7411 0
1 4.74698 34.9935 0
1 6.09854 34.9502 0
1 6.86401 36.2431 0
1 8.20251 36.7389 0
1 0.681707 35.2952 0
1 2.00759 35.1699 0
1 2.85524 36.4006 0
1 4.16286 36.3204 0
