296
Atoms. Timestep: 300
1 17.5542 0.124381 0
1 18.3536 1.34011 0
1 19.6757 1.2502 0
1 13.5485 0.147378 0
1 14.3356 1.43828 0
1 15.6613 1.40105 0
1 16.4525 2.68083 0
1 17.7695 2.63279 0
1 18.5809 3.85805 0
1 19.9326 3.78689 0
1 9.59485 0.158015 0
1 10.3501 1.36012 0
1 11.6769 1.40169 0
1 12.3978 2.67372 0
1 13.7133 2.67516 0
1 14.4347 3.92641 0
1 15.8264 3.92392 0
1 16.5962 5.16686 0
1 17.9846 5.1274 0
1 18.7735 6.36997 0
1 20.1618 6.33721 0
1 4.95362 0.675381 0
1 6.23485 0.620932 0
1 6.99206 1.86711 0
1 8.33274 1.92906 0
1 9.07506 3.15177 0
1 10.3977 3.45336 0
1 11.7442 3.90682 0
1 12.4408 5.22366 0
1 13.8303 5.19428 0
1 14.5662 6.43322 0
1 15.956 6.40467 0
1 16.738 7.67753 0
1 18.1263 7.61673 0
1 18.9117 8.88127 0
1 20.3245 8.858 0
1 0.198448 36.6749 0
1 1.03841 1.00654 0
1 2.32414 0.881682 0
1 3.14207 2.09807 0
1 4.42643 1.95454 0
1 5.16505 3.19603 0
1 6.44683 3.10724 0
1 7.13877 4.33331 0
1 8.4726 4.39859 0
1 9.50929 5.4077 0
1 10.3646 6.54808 0
1 11.7626 6.47625 0
1 12.5239 7.67731 0
1 13.9098 7.70584 0
1 14.6735 8.93055 0
1 16.0889 8.91524 0
1 16.8235 10.1284 0
1 18.2494 10.1335 0
1 18.9849 11.3713 0
1 20.4061 11.3302 0
1 20.4794 2.46844 0
1 0.523719 2.35689 0
1 1.3724 3.6018 0
1 2.71723 3.4829 0
1 3.64538 4.8565 0
1 5.04774 4.72612 0
1 6.10968 6.17776 0
1 7.61924 6.37733 0
1 8.33392 7.67354 0
1 9.7274 7.73729 0
1 10.4514 8.96333 0
1 11.8378 8.9501 0
1 12.5959 10.1694 0
1 13.9949 10.1643 0
1 14.7412 11.4063 0
1 16.1515 11.3753 0
1 16.8864 12.6239 0
1 18.3091 12.6279 0
1 19.0463 13.8539 0
1 20.4764 13.8366 0
1 20.7709 5.02671 0
1 0.836761 4.93141 0
1 1.70237 6.23449 0
1 3.11265 6.14043 0
1 3.96454 7.47788 0
1 5.42409 7.47718 0
1 6.20099 8.80807 0
1 7.62632 8.87776 0
1 8.33834 10.1408 0
1 9.74083 10.1771 0
1 10.4733 11.4064 0
1 11.8915 11.4141 0
1 12.6671 12.6445 0
1 14.045 12.6539 0
1 14.7852 13.883 0
1 16.1911 13.8762 0
1 16.9278 15.0931 0
1 18.3383 15.078 0
1 19.0618 16.3495 0
1 20.4858 16.3148 0
1 20.9711 7.56957 0
1 1.0818 7.52234 0
1 1.89756 8.78591 0
1 3.3301 8.76949 0
1 4.08178 10.0418 0
1 5.49853 10.0515 0
1 6.2505 11.3561 0
1 7.64397 11.3594 0
1 8.37572 12.6292 0
1 9.79219 12.6487 0
1 10.5276 13.8727 0
1 11.928 13.8557 0
1 12.6738 15.1104 0
1 14.0737 15.1068 0
1 14.7979 16.3477 0
1 16.2315 16.3441 0
1 16.9456 17.5719 0
1 18.3458 17.5733 0
1 19.0802 18.8061 0
1 20.5076 18.7796 0
1 21.0867 10.0916 0
1 1.22899 10.0715 0
1 1.98906 11.3044 0
1 3.40118 11.3113 0
1 4.13869 12.5833 0
1 5.54669 12.5763 0
1 6.27144 13.8382 0
1 7.67156 13.8336 0
1 8.42207 15.0905 0
1 9.82494 15.1057 0
1 10.5575 16.3216 0
1 11.9601 16.3401 0
1 12.65 17.561 0
1 14.1022 17.584 0
1 14.8098 18.82 0
1 16.2179 18.8152 0
1 16.9465 20.0573 0
1 18.3738 20.0262 0
1 19.0817 21.2978 0
1 20.5244 21.2918 0
1 21.1604 12.6001 0
1 1.29433 12.5787 0
1 2.01613 13.8266 0
1 3.42585 13.8425 0
1 4.14708 15.0555 0
1 5.60423 15.059 0
1 6.28737 16.3462 0
1 7.70446 16.3271 0
1 8.39554 17.5465 0
1 9.85115 17.5613 0
1 10.5565 18.7997 0
1 11.9668 18.7813 0
1 12.6779 20.0271 0
1 14.1083 20.0423 0
1 14.8157 21.2903 0
1 16.2693 21.2804 0
1 16.9485 22.5229 0
1 18.3847 22.5327 0
1 19.1144 23.7862 0
1 20.5324 23.7616 0
1 21.1861 15.0773 0
1 1.31499 15.0858 0
1 2.04101 16.3296 0
1 3.44599 16.3167 0
1 4.18585 17.5439 0
1 5.59727 17.548 0
1 6.30544 18.7938 0
1 7.70348 18.7881 0
1 8.42092 20.0215 0
1 9.87221 20.0079 0
1 10.5651 21.2644 0
1 11.9836 21.2558 0
1 12.702 22.4933 0
1 14.1205 22.5104 0
1 14.8518 23.7493 0
1 16.2816 23.7593 0
1 17.0166 24.9993 0
1 18.4263 24.9963 0
1 19.1425 26.2568 0
1 20.5889 26.2566 0
1 21.2001 17.5564 0
1 1.3267 17.5633 0
1 2.04561 18.7992 0
1 3.46679 18.7739 0
1 4.1624 20.0179 0
1 5.59801 20.0259 0
1 6.30499 21.2435 0
1 7.73042 21.2431 0
1 8.45096 22.4715 0
1 9.85896 22.4868 0
1 10.5961 23.743 0
1 12.0125 23.7104 0
1 12.7424 24.9617 0
1 14.17 25.0103 0
1 14.8988 26.2475 0
1 16.3238 26.2423 0
1 17.0948 27.5071 0
1 18.4765 27.4843 0
1 19.2738 28.8009 0
1 20.6798 28.7704 0
1 21.2177 20.0315 0
1 1.33884 20.0404 0
1 2.07585 21.2615 0
1 3.45694 21.2523 0
1 4.19324 22.5084 0
1 5.62006 22.487 0
1 6.33972 23.7317 0
1 7.75141 23.7154 0
1 8.47767 24.9459 0
1 9.90038 24.9468 0
1 10.6294 26.17 0
1 12.048 26.2046 0
1 12.8101 27.4304 0
1 14.2324 27.4652 0
1 14.9763 28.7302 0
1 16.3935 28.7298 0
1 17.1729 30.0122 0
1 18.6039 30.0368 0
1 19.3806 31.3554 0
1 20.8091 31.3462 0
1 21.2514 22.5084 0
1 1.36175 22.5088 0
1 2.08252 23.7572 0
1 3.49376 23.7489 0
1 4.23594 24.9598 0
1 5.66292 24.9611 0
1 6.36326 26.1838 0
1 7.7964 26.1769 0
1 8.55627 27.401 0
1 9.95985 27.4008 0
1 10.6985 28.5871 0
1 12.1256 28.6472 0
1 12.8744 29.9102 0
1 14.3111 29.9692 0
1 15.1558 31.2016 0
1 16.5355 31.2395 0
1 17.2987 32.4929 0
1 18.73 32.6174 0
1 19.7262 34.1174 0
1 21.0991 33.9971 0
1 21.264 25.0091 0
1 1.3826 24.9823 0
1 2.11726 26.2212 0
1 3.53085 26.2136 0
1 4.27008 27.4693 0
1 5.67639 27.4329 0
1 6.42319 28.6761 0
1 7.87134 28.651 0
1 8.63349 29.9057 0
1 10.0604 29.8344 0
1 11.0209 30.9228 0
1 11.9174 32.0837 0
1 13.2667 32.0951 0
1 14.0059 33.2872 0
1 15.3632 33.2868 0
1 16.1121 34.531 0
1 17.4515 34.6111 0
1 18.1314 35.7671 0
1 19.413 35.5956 0
1 20.2151 36.8255 0
1 0.0492537 27.5079 0
1 1.4525 27.495 0
1 2.2012 28.7472 0
1 3.61431 28.7224 0
1 4.3627 29.9473 0
1 5.77036 29.9342 0
1 6.53897 31.1483 0
1 7.93878 31.1304 0
1 8.5812 32.392 0
1 9.90819 32.6639 0
1 11.2587 33.3469 0
1 12.0109 34.5855 0
1 13.4039 34.5334 0
1 14.1576 35.808 0
1 15.482 35.7881 0
1 16.2373 0.15589 0
1 0.149537 30.051 0
1 1.55416 30.0358 0
1 2.34832 31.2788 0
1 3.72721 31.2362 0
1 4.51925 32.4595 0
1 5.91736 32.4275 0
1 6.67663 33.6888 0
1 8.02782 33.6 0
1 9.02147 34.7448 0
1 10.0951 35.829 0
1 11.4437 35.7817 0
1 12.2468 0.159745 0
1 0.352139 32.6291 0
1 1.73686 32.5474 0
1 2.56656 33.8299 0
1 3.93456 33.7455 0
1 4.74545 34.9972 0
1 6.09903 34.9497 0
1 6.86429 36.2397 0
1 8.20668 36.739 0
1 0.681487 35.2909 0
1 2.0088 35.1681 0
1 2.85292 36.4036 0
1 4.16336 36.3208 0
