296
Atoms. Timestep: 700
1 17.5174 0.122168 0
1 18.3288 1.36403 0
1 19.6691 1.27388 0
1 13.5355 0.136899 0
1 14.3239 1.47417 0
1 15.6685 1.41793 0
1 16.4822 2.73289 0
1 17.7974 2.6792 0
1 18.5945 3.88197 0
1 19.9426 3.79271 0
1 9.60238 0.152374 0
1 10.3589 1.33319 0
1 11.6954 1.37746 0
1 12.3878 2.6585 0
1 13.6856 2.68663 0
1 14.3971 3.88854 0
1 15.8314 3.92447 0
1 16.5884 5.15457 0
1 18.0098 5.12735 0
1 18.7641 6.36353 0
1 20.1651 6.36689 0
1 4.94524 0.668047 0
1 6.21241 0.631391 0
1 6.9614 1.87971 0
1 8.34936 1.93579 0
1 9.07095 3.13999 0
1 10.3631 3.45334 0
1 11.7108 3.89695 0
1 12.466 5.233 0
1 13.8261 5.17085 0
1 14.5632 6.38941 0
1 15.9329 6.37113 0
1 16.7373 7.67281 0
1 18.1101 7.59374 0
1 18.9097 8.89554 0
1 20.31 8.8858 0
1 0.19413 36.7206 0
1 1.05043 1.02232 0
1 2.34708 0.88272 0
1 3.17588 2.07281 0
1 4.44856 1.90963 0
1 5.13971 3.17398 0
1 6.42184 3.1305 0
1 7.13625 4.35281 0
1 8.47358 4.43669 0
1 9.51078 5.42703 0
1 10.3685 6.54625 0
1 11.791 6.46933 0
1 12.4965 7.64797 0
1 13.8999 7.69206 0
1 14.6659 8.94043 0
1 16.1103 8.91128 0
1 16.818 10.0835 0
1 18.2352 10.1292 0
1 18.9611 11.3697 0
1 20.3732 11.3093 0
1 20.4741 2.46655 0
1 0.540224 2.34459 0
1 1.38455 3.56369 0
1 2.73612 3.47135 0
1 3.62886 4.89348 0
1 5.00677 4.7306 0
1 6.08517 6.17498 0
1 7.60695 6.40114 0
1 8.34636 7.66533 0
1 9.728 7.71255 0
1 10.424 8.95734 0
1 11.8148 8.92439 0
1 12.5725 10.1465 0
1 13.9903 10.149 0
1 14.7385 11.3991 0
1 16.1433 11.3288 0
1 16.8818 12.6175 0
1 18.3116 12.6409 0
1 19.0627 13.8465 0
1 20.5028 13.8342 0
1 20.7789 5.02297 0
1 0.83624 4.89907 0
1 1.69271 6.23496 0
1 3.08382 6.13491 0
1 3.95881 7.49212 0
1 5.4272 7.4848 0
1 6.22762 8.79407 0
1 7.66038 8.8715 0
1 8.31781 10.1241 0
1 9.69116 10.1745 0
1 10.4098 11.4187 0
1 11.8832 11.3941 0
1 12.6866 12.6437 0
1 14.0692 12.6745 0
1 14.7801 13.9117 0
1 16.1864 13.8838 0
1 16.9446 15.0698 0
1 18.3471 15.0513 0
1 19.0532 16.3608 0
1 20.4834 16.3105 0
1 20.9454 7.59028 0
1 1.06948 7.52216 0
1 1.90994 8.79552 0
1 3.34717 8.78112 0
1 4.10227 10.0227 0
1 5.51479 10.0324 0
1 6.2643 11.3621 0
1 7.63099 11.3533 0
1 8.34227 12.633 0
1 9.76044 12.6727 0
1 10.5133 13.8542 0
1 11.9322 13.8232 0
1 12.6745 15.0973 0
1 14.0719 15.1153 0
1 14.8043 16.3676 0
1 16.2688 16.346 0
1 16.9597 17.575 0
1 18.3469 17.5879 0
1 19.0909 18.7823 0
1 20.5214 18.7393 0
1 21.0557 10.098 0
1 1.25429 10.077 0
1 2.02768 11.2862 0
1 3.42879 11.2951 0
1 4.15581 12.5963 0
1 5.56388 12.5852 0
1 6.294 13.8097 0
1 7.65093 13.7989 0
1 8.42264 15.0813 0
1 9.84773 15.0887 0
1 10.5745 16.2914 0
1 11.9498 16.3109 0
1 12.5992 17.5297 0
1 14.0938 17.6008 0
1 14.809 18.8492 0
1 16.2056 18.8428 0
1 16.9701 20.0688 0
1 18.3954 20.016 0
1 19.0939 21.3413 0
1 20.5549 21.3193 0
1 21.1771 12.603 0
1 1.32935 12.5775 0
1 2.03347 13.8508 0
1 3.42272 13.866 0
1 4.13042 15.0306 0
1 5.63729 15.0287 0
1 6.31384 16.3678 0
1 7.68499 16.3412 0
1 8.34539 17.5132 0
1 9.85523 17.5319 0
1 10.5758 18.7648 0
1 11.9276 18.7272 0
1 12.6644 19.9869 0
1 14.1031 20.0516 0
1 14.8203 21.3128 0
1 16.2988 21.3073 0
1 16.9631 22.5369 0
1 18.3696 22.5815 0
1 19.1121 23.8288 0
1 20.5286 23.7979 0
1 21.1933 15.0731 0
1 1.32243 15.1161 0
1 2.04923 16.3772 0
1 3.45254 16.3209 0
1 4.21223 17.5196 0
1 5.61405 17.5481 0
1 6.30087 18.7959 0
1 7.65152 18.7699 0
1 8.40604 19.9807 0
1 9.89858 19.9698 0
1 10.5804 21.2466 0
1 11.9742 21.2327 0
1 12.6947 22.4641 0
1 14.1123 22.5175 0
1 14.8666 23.7784 0
1 16.295 23.7574 0
1 17.0451 24.9799 0
1 18.4237 25.0003 0
1 19.0954 26.2422 0
1 20.5854 26.2769 0
1 21.205 17.5352 0
1 1.3288 17.5895 0
1 2.04037 18.8042 0
1 3.47054 18.7483 0
1 4.12131 19.9897 0
1 5.57918 20.0192 0
1 6.29179 21.2127 0
1 7.7247 21.1944 0
1 8.44659 22.4318 0
1 9.84747 22.4789 0
1 10.5983 23.7604 0
1 12.0212 23.692 0
1 12.748 24.9706 0
1 14.1904 25.0716 0
1 14.9181 26.2927 0
1 16.3518 26.2499 0
1 17.1071 27.4924 0
1 18.4487 27.4572 0
1 19.3132 28.838 0
1 20.7228 28.7987 0
1 21.2411 20.027 0
1 1.35633 20.0493 0
1 2.08463 21.2556 0
1 3.41323 21.2277 0
1 4.16701 22.5223 0
1 5.61724 22.4812 0
1 6.3707 23.7333 0
1 7.75216 23.6989 0
1 8.48129 24.9312 0
1 9.91351 24.9611 0
1 10.6336 26.1879 0
1 12.0525 26.211 0
1 12.8562 27.4397 0
1 14.2625 27.4748 0
1 14.9662 28.717 0
1 16.3789 28.7217 0
1 17.1362 30.0006 0
1 18.6107 30.064 0
1 19.3586 31.3697 0
1 20.8212 31.3725 0
1 21.2849 22.5097 0
1 1.39224 22.5118 0
1 2.06971 23.7815 0
1 3.48936 23.7744 0
1 4.2396 24.947 0
1 5.68244 24.9459 0
1 6.34004 26.1624 0
1 7.81494 26.1557 0
1 8.61445 27.4032 0
1 10.0104 27.3901 0
1 10.7508 28.5884 0
1 12.1932 28.6388 0
1 12.8715 29.9071 0
1 14.296 29.9686 0
1 15.1464 31.1502 0
1 16.5156 31.2295 0
1 17.2881 32.5082 0
1 18.7024 32.5915 0
1 19.7184 34.0885 0
1 21.1243 34.0256 0
1 21.2478 25.0211 0
1 1.35363 24.9809 0
1 2.08755 26.1987 0
1 3.49134 26.2044 0
1 4.21926 27.4962 0
1 5.60283 27.4342 0
1 6.37951 28.6852 0
1 7.91172 28.6584 0
1 8.6854 29.952 0
1 10.1117 29.8804 0
1 11.0478 30.9584 0
1 11.9374 32.1106 0
1 13.2866 32.1061 0
1 14.0051 33.2597 0
1 15.3351 33.2622 0
1 16.0959 34.518 0
1 17.4523 34.6155 0
1 18.1018 35.786 0
1 19.4019 35.6009 0
1 20.2021 36.8801 0
1 0.0739328 27.5282 0
1 1.44695 27.5099 0
1 2.19852 28.7914 0
1 3.58704 28.7591 0
1 4.32665 29.9684 0
1 5.74137 29.9547 0
1 6.55845 31.1551 0
1 7.96257 31.1451 0
1 8.57133 32.4139 0
1 9.89632 32.6479 0
1 11.2463 33.3991 0
1 11.9833 34.5974 0
1 13.39 34.5298 0
1 14.1433 35.8185 0
1 15.4533 35.8055 0
1 16.1944 0.160741 0
1 0.172223 30.0894 0
1 1.57141 30.0955 0
1 2.36076 31.3096 0
1 3.71702 31.2486 0
1 4.52431 32.4281 0
1 5.94028 32.421 0
1 6.67619 33.6946 0
1 7.9886 33.6202 0
1 9.10244 34.7084 0
1 10.125 35.8281 0
1 11.4165 35.7807 0
1 12.2435 0.141114 0
1 0.385851 32.6037 0
1 1.76622 32.5053 0
1 2.57642 33.7994 0
1 3.954 33.7015 0
1 4.75532 34.9657 0
1 6.09778 34.9533 0
1 6.84819 36.2805 0
1 8.16529 36.7183 0
1 0.674532 35.3417 0
1 2.01475 35.1812 0
1 2.85468 36.3876 0
1 4.17669 36.3018 0
