296
Atoms. Timestep: 900
1 17.5077 0.125959 0
1 18.3056 1.38774 0
1 19.6594 1.28917 0
1 13.5508 0.13573 0
1 14.3021 1.47948 0
1 15.6658 1.44982 0
1 16.4748 2.7459 0
1 17.8299 2.70506 0
1 18.6029 3.89755 0
1 19.9521 3.79307 0
1 9.58435 0.151587 0
1 10.3585 1.32577 0
1 11.6839 1.37508 0
1 12.3763 2.64518 0
1 13.6814 2.69156 0
1 14.4066 3.88166 0
1 15.8322 3.92256 0
1 16.5811 5.14358 0
1 18.0138 5.13177 0
1 18.7534 6.36115 0
1 20.1725 6.36728 0
1 4.93254 0.645922 0
1 6.22377 0.63979 0
1 6.97463 1.87895 0
1 8.3534 1.93521 0
1 9.03169 3.1486 0
1 10.3693 3.45013 0
1 11.6909 3.88857 0
1 12.457 5.22281 0
1 13.7997 5.15813 0
1 14.5671 6.36788 0
1 15.928 6.36487 0
1 16.7269 7.64275 0
1 18.1143 7.60228 0
1 18.9032 8.89958 0
1 20.2998 8.88824 0
1 0.206263 36.7533 0
1 1.04447 1.03438 0
1 2.3706 0.872134 0
1 3.19401 2.05248 0
1 4.44532 1.89757 0
1 5.12477 3.17415 0
1 6.40689 3.14158 0
1 7.11378 4.36977 0
1 8.48796 4.43423 0
1 9.51414 5.44055 0
1 10.3789 6.53818 0
1 11.8077 6.45449 0
1 12.4738 7.6659 0
1 13.9029 7.65286 0
1 14.6584 8.93979 0
1 16.1063 8.89786 0
1 16.8227 10.0777 0
1 18.2145 10.1165 0
1 18.9518 11.3629 0
1 20.3632 11.3223 0
1 20.4838 2.47085 0
1 0.546251 2.33696 0
1 1.38991 3.54575 0
1 2.74384 3.46589 0
1 3.62359 4.89116 0
1 4.97649 4.73531 0
1 6.06871 6.18068 0
1 7.6042 6.40238 0
1 8.34496 7.66856 0
1 9.72629 7.70781 0
1 10.3924 8.94472 0
1 11.8114 8.90182 0
1 12.5443 10.1374 0
1 13.987 10.1449 0
1 14.7344 11.3861 0
1 16.1369 11.3138 0
1 16.8794 12.6172 0
1 18.3118 12.6287 0
1 19.0691 13.8373 0
1 20.5068 13.8375 0
1 20.7721 5.02108 0
1 0.840012 4.88798 0
1 1.67996 6.21584 0
1 3.05527 6.16294 0
1 3.96918 7.49673 0
1 5.4271 7.48117 0
1 6.23692 8.78869 0
1 7.66429 8.85569 0
1 8.30711 10.1201 0
1 9.6734 10.168 0
1 10.3784 11.434 0
1 11.8909 11.3735 0
1 12.6578 12.6405 0
1 14.095 12.6731 0
1 14.7714 13.9236 0
1 16.1903 13.8783 0
1 16.9505 15.065 0
1 18.3593 15.0542 0
1 19.0478 16.3393 0
1 20.4821 16.3177 0
1 20.9304 7.61309 0
1 1.0697 7.52454 0
1 1.91026 8.80768 0
1 3.34197 8.7785 0
1 4.12318 10.0154 0
1 5.53145 10.0258 0
1 6.25425 11.3439 0
1 7.62659 11.3573 0
1 8.32059 12.6237 0
1 9.73459 12.6665 0
1 10.4978 13.8396 0
1 11.9571 13.8247 0
1 12.6604 15.0836 0
1 14.0828 15.1292 0
1 14.8141 16.3779 0
1 16.2794 16.3424 0
1 16.9587 17.5865 0
1 18.364 17.5917 0
1 19.0934 18.7619 0
1 20.5192 18.7354 0
1 21.0429 10.0983 0
1 1.26531 10.0685 0
1 2.04221 11.2956 0
1 3.4459 11.2785 0
1 4.15972 12.596 0
1 5.57889 12.5998 0
1 6.31219 13.7862 0
1 7.65735 13.7951 0
1 8.40253 15.0789 0
1 9.86739 15.0644 0
1 10.5692 16.2814 0
1 11.9425 16.2808 0
1 12.5981 17.5165 0
1 14.0764 17.6031 0
1 14.8044 18.8631 0
1 16.2168 18.8599 0
1 16.9894 20.0666 0
1 18.4077 20.036 0
1 19.1178 21.358 0
1 20.5659 21.3224 0
1 21.1911 12.5895 0
1 1.344 12.5756 0
1 2.04745 13.8737 0
1 3.43054 13.8542 0
1 4.13347 15.0383 0
1 5.61896 15.0256 0
1 6.3414 16.3419 0
1 7.67416 16.3452 0
1 8.34244 17.5105 0
1 9.84317 17.5063 0
1 10.5824 18.7248 0
1 11.9056 18.7067 0
1 12.6604 19.9658 0
1 14.0956 20.0546 0
1 14.8336 21.317 0
1 16.2872 21.3324 0
1 17.0002 22.5529 0
1 18.3673 22.6077 0
1 19.1088 23.8344 0
1 20.5341 23.8272 0
1 21.205 15.0768 0
1 1.32503 15.1265 0
1 2.04383 16.3957 0
1 3.47169 16.3174 0
1 4.21226 17.5116 0
1 5.61588 17.5543 0
1 6.28129 18.7891 0
1 7.6333 18.7548 0
1 8.40712 19.9445 0
1 9.88795 19.9584 0
1 10.5932 21.2211 0
1 11.969 21.2194 0
1 12.6931 22.4527 0
1 14.1122 22.5198 0
1 14.8788 23.8109 0
1 16.2946 23.7532 0
1 17.0499 24.9751 0
1 18.4175 25.0168 0
1 19.0963 26.2337 0
1 20.5755 26.2858 0
1 21.2153 17.5253 0
1 1.33322 17.5984 0
1 2.03766 18.7975 0
1 3.46811 18.7461 0
1 4.11458 19.9745 0
1 5.55814 20.0041 0
1 6.28951 21.205 0
1 7.71749 21.1657 0
1 8.43805 22.4197 0
1 9.8527 22.4682 0
1 10.5929 23.7413 0
1 12.0257 23.7021 0
1 12.7557 24.993 0
1 14.2006 25.0817 0
1 14.9459 26.3126 0
1 16.3754 26.2579 0
1 17.0819 27.4712 0
1 18.4505 27.4664 0
1 19.326 28.8402 0
1 20.7495 28.8315 0
1 21.2633 20.0315 0
1 1.3724 20.042 0
1 2.06543 21.2589 0
1 3.40688 21.2224 0
1 4.15073 22.5173 0
1 5.60706 22.4819 0
1 6.39 23.7193 0
1 7.75956 23.6854 0
1 8.49249 24.923 0
1 9.92265 24.972 0
1 10.6505 26.2094 0
1 12.0719 26.1932 0
1 12.881 27.4592 0
1 14.2725 27.4835 0
1 14.9656 28.7054 0
1 16.3884 28.7267 0
1 17.131 29.9941 0
1 18.613 30.0847 0
1 19.3574 31.3764 0
1 20.8269 31.3831 0
1 21.2929 22.5273 0
1 1.40957 22.5151 0
1 2.06266 23.7848 0
1 3.49411 23.7779 0
1 4.23151 24.9573 0
1 5.67191 24.933 0
1 6.33966 26.1595 0
1 7.82634 26.1457 0
1 8.63304 27.4147 0
1 10.039 27.3744 0
1 10.7882 28.6136 0
1 12.2202 28.6331 0
1 12.8727 29.9082 0
1 14.2983 29.9566 0
1 15.1143 31.1225 0
1 16.5058 31.215 0
1 17.2806 32.5215 0
1 18.6922 32.5923 0
1 19.7075 34.073 0
1 21.1395 34.0328 0
1 21.2437 25.0235 0
1 1.33724 24.9952 0
1 2.07458 26.1991 0
1 3.47242 26.203 0
1 4.18784 27.4991 0
1 5.56926 27.4441 0
1 6.36824 28.6883 0
1 7.93478 28.6706 0
1 8.71625 29.9707 0
1 10.1535 29.8927 0
1 11.0827 30.9719 0
1 11.9418 32.1439 0
1 13.2905 32.1051 0
1 14.0124 33.2483 0
1 15.3311 33.2696 0
1 16.0777 34.5152 0
1 17.4393 34.5958 0
1 18.0896 35.7964 0
1 19.3913 35.6182 0
1 20.1878 36.9009 0
1 0.0762177 27.5512 0
1 1.43856 27.5147 0
1 2.20493 28.8244 0
1 3.55671 28.7796 0
1 4.31473 30.0009 0
1 5.72897 29.9513 0
1 6.56969 31.1674 0
1 7.97335 31.1628 0
1 8.57103 32.4239 0
1 9.9066 32.6436 0
1 11.2261 33.4241 0
1 11.9929 34.5898 0
1 13.3598 34.5414 0
1 14.1286 35.8096 0
1 15.4429 35.8137 0
1 16.1755 0.162583 0
1 0.190773 30.1233 0
1 1.58589 30.1178 0
1 2.36123 31.3225 0
1 3.72187 31.2412 0
1 4.5362 32.4218 0
1 5.93356 32.4145 0
1 6.68435 33.7005 0
1 7.97889 33.6383 0
1 9.15941 34.6809 0
1 10.1253 35.8312 0
1 11.415 35.7874 0
1 12.226 0.129058 0
1 0.399946 32.6016 0
1 1.78247 32.5085 0
1 2.58267 33.7775 0
1 3.96232 33.6825 0
1 4.7566 34.955 0
1 6.10082 34.9533 0
1 6.82504 36.3049 0
1 8.1548 36.7093 0
1 0.668249 35.3703 0
1 2.02889 35.1849 0
1 2.84536 36.3901 0
1 4.19143 36.2796 0
