296
Atoms. Timestep: 100
1 17.5746 0.123906 0
1 18.3495 1.33822 0
1 19.6781 1.24333 0
1 13.5671 0.151581 0
1 14.3289 1.42279 0
1 15.6602 1.40511 0
1 16.4302 2.66094 0
1 17.7773 2.61708 0
1 18.5723 3.85416 0
1 19.933 3.78161 0
1 9.58255 0.165234 0
1 10.3454 1.36237 0
1 11.6622 1.41585 0
1 12.4003 2.67308 0
1 13.7252 2.67448 0
1 14.461 3.94095 0
1 15.8242 3.92201 0
1 16.5963 5.16793 0
1 17.9765 5.12829 0
1 18.7704 6.37174 0
1 20.1671 6.32078 0
1 4.94779 0.671301 0
1 6.25669 0.618582 0
1 7.01383 1.85909 0
1 8.33129 1.93936 0
1 9.0565 3.16056 0
1 10.4209 3.45864 0
1 11.7508 3.90866 0
1 12.4249 5.21524 0
1 13.8165 5.20261 0
1 14.5723 6.44594 0
1 15.9644 6.42161 0
1 16.7338 7.66545 0
1 18.1373 7.63365 0
1 18.9112 8.87602 0
1 20.3289 8.84379 0
1 0.20899 36.6641 0
1 1.02518 1.00393 0
1 2.32611 0.875866 0
1 3.13316 2.10236 0
1 4.41411 1.97202 0
1 5.17277 3.20704 0
1 6.45132 3.10141 0
1 7.12915 4.32767 0
1 8.48156 4.37712 0
1 9.50932 5.40431 0
1 10.3647 6.54638 0
1 11.7601 6.47134 0
1 12.5211 7.70589 0
1 13.9194 7.69112 0
1 14.6711 8.92953 0
1 16.0784 8.91251 0
1 16.8292 10.1486 0
1 18.2463 10.1303 0
1 18.9942 11.3682 0
1 20.4171 11.3472 0
1 20.4856 2.47076 0
1 0.518217 2.35959 0
1 1.36849 3.61388 0
1 2.70968 3.48877 0
1 3.65449 4.83642 0
1 5.05366 4.72433 0
1 6.11605 6.18295 0
1 7.62546 6.366 0
1 8.32445 7.68022 0
1 9.72841 7.74602 0
1 10.4486 8.96344 0
1 11.8534 8.95058 0
1 12.5916 10.1797 0
1 13.9994 10.1693 0
1 14.7379 11.4048 0
1 16.1521 11.3921 0
1 16.8881 12.6281 0
1 18.3082 12.6167 0
1 19.0399 13.8524 0
1 20.4633 13.8406 0
1 20.761 5.0288 0
1 0.838716 4.94328 0
1 1.7023 6.22474 0
1 3.11171 6.15646 0
1 3.97405 7.47116 0
1 5.42192 7.4717 0
1 6.19014 8.81347 0
1 7.61361 8.87246 0
1 8.34139 10.1481 0
1 9.76152 10.1737 0
1 10.4892 11.4111 0
1 11.9056 11.4116 0
1 12.6376 12.646 0
1 14.0506 12.6417 0
1 14.7789 13.8753 0
1 16.1956 13.8686 0
1 16.9203 15.1019 0
1 18.3401 15.0943 0
1 19.0614 16.332 0
1 20.4845 16.3233 0
1 20.9744 7.57011 0
1 1.09003 7.52146 0
1 1.8898 8.78702 0
1 3.31647 8.76223 0
1 4.08013 10.048 0
1 5.49686 10.0586 0
1 6.23755 11.3439 0
1 7.65092 11.3658 0
1 8.3811 12.6232 0
1 9.79914 12.6349 0
1 10.5248 13.8744 0
1 11.9414 13.8749 0
1 12.6648 15.1108 0
1 14.0809 15.1088 0
1 14.7998 16.3428 0
1 16.2188 16.3401 0
1 16.9355 17.574 0
1 18.355 17.5708 0
1 19.0738 18.8059 0
1 20.4979 18.7996 0
1 21.0962 10.0887 0
1 1.22153 10.0634 0
1 1.97383 11.3187 0
1 3.3931 11.3108 0
1 4.12968 12.576 0
1 5.54381 12.5818 0
1 6.27145 13.8403 0
1 7.68613 13.8496 0
1 8.4103 15.0956 0
1 9.8269 15.1022 0
1 10.546 16.3374 0
1 11.9631 16.3408 0
1 12.6765 17.5734 0
1 14.0964 17.5757 0
1 14.8102 18.81 0
1 16.2281 18.8099 0
1 16.9454 20.0464 0
1 18.3674 20.0428 0
1 19.0872 21.2821 0
1 20.5122 21.2777 0
1 21.1584 12.5914 0
1 1.28216 12.5777 0
1 2.01263 13.8258 0
1 3.4311 13.8239 0
1 4.15503 15.071 0
1 5.57417 15.0747 0
1 6.29094 16.3218 0
1 7.70786 16.3253 0
1 8.42187 17.5617 0
1 9.84209 17.5662 0
1 10.5551 18.8003 0
1 11.9728 18.8019 0
1 12.6866 20.0368 0
1 14.1054 20.0406 0
1 14.8224 21.2784 0
1 16.2436 21.2799 0
1 16.9639 22.5206 0
1 18.3862 22.5204 0
1 19.1155 23.764 0
1 20.5372 23.7574 0
1 21.1883 15.0797 0
1 1.3113 15.0734 0
1 2.03325 16.3146 0
1 3.45191 16.3119 0
1 4.17123 17.5515 0
1 5.58792 17.5529 0
1 6.30245 18.7907 0
1 7.71792 18.792 0
1 8.43199 20.026 0
1 9.85173 20.0269 0
1 10.5661 21.2619 0
1 11.9846 21.2645 0
1 12.7052 22.5015 0
1 14.1236 22.5076 0
1 14.8512 23.7507 0
1 16.2706 23.7556 0
1 17.0056 25.0043 0
1 18.4248 25.0039 0
1 19.1669 26.2579 0
1 20.5866 26.251 0
1 21.2038 17.56 0
1 1.32707 17.5554 0
1 2.04536 18.7924 0
1 3.46508 18.7881 0
1 4.18022 20.025 0
1 5.59798 20.0239 0
1 6.31349 21.2571 0
1 7.73026 21.2555 0
1 8.44905 22.4878 0
1 9.86656 22.4884 0
1 10.5911 23.7236 0
1 12.0112 23.7259 0
1 12.7421 24.9683 0
1 14.1621 24.9814 0
1 14.9011 26.2346 0
1 16.3216 26.2418 0
1 17.0755 27.503 0
1 18.4918 27.5046 0
1 19.2594 28.7801 0
1 20.67 28.7696 0
1 21.2164 20.0363 0
1 1.33937 20.0321 0
1 2.06021 21.2672 0
1 3.47683 21.2621 0
1 4.19806 22.4986 0
1 5.61472 22.4921 0
1 6.3371 23.7258 0
1 7.75298 23.7189 0
1 8.47979 24.9495 0
1 9.89976 24.9453 0
1 10.6303 26.1755 0
1 12.0546 26.1886 0
1 12.7946 27.4376 0
1 14.2205 27.4618 0
1 14.9804 28.7303 0
1 16.4077 28.7385 0
1 17.1881 30.0149 0
1 18.6014 30.033 0
1 19.3921 31.3509 0
1 20.8047 31.3373 0
1 21.2364 22.5143 0
1 1.35764 22.5081 0
1 2.08366 23.7466 0
1 3.50104 23.7379 0
1 4.23076 24.9721 0
1 5.64652 24.9621 0
1 6.37712 26.1942 0
1 7.79288 26.1815 0
1 8.53289 27.4084 0
1 9.94844 27.3918 0
1 10.6835 28.6024 0
1 12.1056 28.645 0
1 12.8719 29.9145 0
1 14.3206 29.9672 0
1 15.1497 31.202 0
1 16.5443 31.2386 0
1 17.3043 32.4979 0
1 18.7391 32.6283 0
1 19.7266 34.1267 0
1 21.0943 33.9854 0
1 21.2715 25.0016 0
1 1.39057 24.99 0
1 2.12854 26.2323 0
1 3.54344 26.2171 0
1 4.28507 27.4568 0
1 5.69723 27.4366 0
1 6.44334 28.6724 0
1 7.85962 28.652 0
1 8.61988 29.8906 0
1 10.0511 29.815 0
1 11.0228 30.9068 0
1 11.9234 32.0792 0
1 13.2538 32.0917 0
1 14.0139 33.2926 0
1 15.3745 33.3166 0
1 16.1123 34.5365 0
1 17.4469 34.5925 0
1 18.1393 35.7644 0
1 19.4147 35.5995 0
1 20.2132 36.8059 0
1 0.0381449 27.5063 0
1 1.45109 27.4884 0
1 2.20683 28.7389 0
1 3.61593 28.7113 0
1 4.37629 29.9523 0
1 5.77867 29.9211 0
1 6.53582 31.1507 0
1 7.92996 31.1292 0
1 8.58768 32.3826 0
1 9.91349 32.6721 0
1 11.2558 33.332 0
1 12.0331 34.5723 0
1 13.3943 34.5434 0
1 14.1592 35.7976 0
1 15.494 35.7846 0
1 16.2484 0.15387 0
1 0.14519 30.0456 0
1 1.5521 30.0133 0
1 2.34017 31.2719 0
1 3.73437 31.2254 0
1 4.52241 32.4732 0
1 5.90079 32.4284 0
1 6.68528 33.6875 0
1 8.03166 33.6027 0
1 9.00181 34.753 0
1 10.0948 35.8233 0
1 11.4497 35.7875 0
1 12.2403 0.163816 0
1 0.340718 32.6402 0
1 1.73014 32.568 0
1 2.56284 33.8369 0
1 3.92877 33.76 0
1 4.73978 35.0103 0
1 6.1012 34.9477 0
1 6.86467 36.2297 0
1 8.20744 36.7375 0
1 0.679324 35.278 0
1 2.01529 35.1617 0
1 2.84219 36.415 0
1 4.16802 36.3205 0
